LAMMPS data file via write_data, version 14 Dec 2021, timestep = 2000000

5913 atoms
2 atom types
5912 bonds
2 bond types

-50 50 xlo xhi
10 100 ylo yhi
-50 25 zlo zhi

Masses

1 1
2 1

Atoms # full

4249 1 1 0 -1.9103847901159856 24.6788587716772 -13.199637122165981 0 0 0
4250 1 1 0 -2.103437997384381 24.69907401545166 -12.30572266456403 0 0 0
4253 1 1 0 -0.609762310679085 24.338481260760915 -12.28073048376367 0 0 0
4251 1 1 0 -2.1476546706144903 23.867779624495714 -11.697178890842311 0 0 0
4252 1 1 0 -1.2752754942138185 24.09295746506916 -11.645452701588589 0 0 0
3915 1 1 0 -1.9544607146486956 46.60844566429279 -34.889042302066386 0 0 0
3917 1 1 0 -2.764622853665334 45.444791764727775 -34.00659910603951 0 0 0
3916 1 1 0 -1.974602257942618 46.04852959684651 -34.11593153397229 0 0 0
3946 1 1 0 -7.850199218777926 47.70433012609645 -34.54009628132559 0 0 0
3945 1 1 0 -7.156963225103449 47.545364068567736 -33.88438268124887 0 0 0
3914 1 1 0 -2.4121092831712447 47.38090648815626 -34.58281048447327 0 0 0
3913 1 1 0 -1.4518277567860836 47.437500677556855 -34.514853846343094 0 0 0
3912 1 1 0 -0.7598804686686674 47.65085797240888 -33.85385551918704 0 0 0
3947 1 1 0 -7.5966681948789665 48.451631172275626 -34.05791064276036 0 0 0
3941 1 1 0 -8.072799635566396 45.945166065668325 -32.64169973821157 0 0 0
3943 1 1 0 -6.951436360094443 46.01412457317824 -33.1993862595088 0 0 0
3918 1 1 0 -3.645106726433066 45.83284298178141 -33.44798862971763 0 0 0
3919 1 1 0 -4.168419434379323 46.282402871924134 -32.81075636607643 0 0 0
3944 1 1 0 -7.14862555770566 46.95369490950796 -33.11985566533326 0 0 0
3978 1 1 0 -14.592372135556658 48.65327942936825 -32.84118986809061 0 0 0
3975 1 1 0 -13.42083794247014 48.808535066331025 -33.256412897298894 0 0 0
3911 1 1 0 -0.6873912647411143 48.32301567804299 -33.17522710675869 0 0 0
3980 1 1 0 -16.18406220328248 49.732035620925124 -32.97059514831968 0 0 0
3979 1 1 0 -15.478200833541013 49.14987513009139 -33.03655109150475 0 0 0
3977 1 1 0 -14.59950595347555 49.27688984592891 -33.561364695919046 0 0 0
3976 1 1 0 -13.738934477800711 49.679907102170155 -33.50978622164057 0 0 0
3959 1 1 0 -8.95862237179018 49.43574917245121 -32.77684503404565 0 0 0
3958 1 1 0 -8.126158306601523 49.76309129881463 -32.7588605373345 0 0 0
3948 1 1 0 -7.254147883958339 49.1099283139165 -33.40013408075033 0 0 0
3950 1 1 0 -5.972312809833238 49.78010613181942 -33.45183944394387 0 0 0
3939 1 1 0 -7.496091203395504 44.34827814046127 -32.24332154419844 0 0 0
3940 1 1 0 -7.96338617875785 45.17444838174136 -32.1546875035383 0 0 0
3937 1 1 0 -6.495126882480835 45.41918713008234 -31.929144048946394 0 0 0
3921 1 1 0 -4.804541009676404 44.65469117790825 -32.110158988290706 0 0 0
3920 1 1 0 -4.547926965940222 45.46911701987366 -32.545626294135374 0 0 0
3942 1 1 0 -7.191517141351298 46.01352976727792 -32.248095351260325 0 0 0
3936 1 1 0 -6.002663663347902 46.202111030391 -31.634084148099465 0 0 0
3971 1 1 0 -12.47113863891245 47.32151231551376 -31.74914258622084 0 0 0
3935 1 1 0 -5.813144095144762 47.0410754392664 -32.0689847169845 0 0 0
3910 1 1 0 -0.836243204485074 47.7447458960566 -32.498712930739856 0 0 0
3973 1 1 0 -13.675772732570168 48.09630799618602 -32.19250158903818 0 0 0
3934 1 1 0 -5.994072074541795 47.9837423569596 -31.980562885173523 0 0 0
3933 1 1 0 -5.0549533113186 48.09442864595785 -31.909916881211874 0 0 0
3909 1 1 0 -0.902816948770788 48.04069225152656 -31.605335694073606 0 0 0
3974 1 1 0 -13.55609289091235 49.05101872296916 -32.33904073470431 0 0 0
3960 1 1 0 -8.770690094200802 49.08770836968326 -31.936871441970876 0 0 0
3938 1 1 0 -7.086233766768459 44.79367225443301 -31.4722217002142 0 0 0
3922 1 1 0 -5.513376185830625 44.623326819227 -31.392730062920148 0 0 0
3923 1 1 0 -5.351453851580468 45.55075555774568 -31.153604697673632 0 0 0
3901 1 1 0 -2.6973324813644215 45.464066515608074 -30.56098635179809 0 0 0
3970 1 1 0 -12.850047621474866 46.58153509722174 -31.16751189789657 0 0 0
3969 1 1 0 -11.899032732738242 46.46845214127502 -31.19372305182936 0 0 0
3925 1 1 0 -5.138897778245664 46.56041802395314 -30.781574036217336 0 0 0
3902 1 1 0 -1.7899581600673418 45.70560409883068 -30.659157084910266 0 0 0
3972 1 1 0 -13.38843725438242 47.580540580195816 -31.47374536836194 0 0 0
3968 1 1 0 -11.36129009994769 47.24393848616285 -30.997369684971005 0 0 0
3962 1 1 0 -9.61185486541979 47.762127652606694 -30.94293499081796 0 0 0
3931 1 1 0 -4.909751956542292 47.683793075596164 -30.528303347508544 0 0 0
3904 1 1 0 -1.487915148402448 46.7872966727048 -30.890297138006897 0 0 0
3905 1 1 0 -0.49697884415286414 46.83065477755908 -30.707987264827644 0 0 0
3966 1 1 0 -10.746378421554068 48.7093509305998 -30.93280573630426 0 0 0
3961 1 1 0 -8.885039064239352 48.231133234992505 -31.40687106468093 0 0 0
3932 1 1 0 -4.509752714410958 48.267860027508114 -31.126253279233293 0 0 0
3924 1 1 0 -5.80431594878638 45.92885754846583 -30.408745622725178 0 0 0
3903 1 1 0 -2.128274765449496 46.58343056835223 -30.230474750993704 0 0 0
3900 1 1 0 -2.84187140985793 45.906016500585395 -29.650436014993446 0 0 0
3926 1 1 0 -5.529760847919749 46.92665147306084 -29.94378951361008 0 0 0
3930 1 1 0 -4.218069603325763 47.575060942746276 -29.91984285613642 0 0 0
3967 1 1 0 -11.171875749828034 48.00657631805059 -30.42033272147835 0 0 0
3964 1 1 0 -9.230852370140342 48.732544310810106 -29.697636136343466 0 0 0
3963 1 1 0 -8.953663213878473 48.092405262653195 -30.33095215831604 0 0 0
3927 1 1 0 -5.387148804844682 47.855121325744015 -29.518714674681355 0 0 0
3965 1 1 0 -10.021035559317305 48.92161509872866 -30.28169240729751 0 0 0
4121 1 1 0 -14.383023008118837 41.823631377950704 -28.83143109933098 0 0 0
4124 1 1 0 -13.814247908748358 44.259662403335355 -28.628374987599482 0 0 0
3899 1 1 0 -2.3096523063872785 46.423403535204336 -29.03099264433439 0 0 0
3928 1 1 0 -5.055494398565272 47.29725792568364 -28.857543598672336 0 0 0
3929 1 1 0 -4.439189412451178 46.792987224542465 -29.34528349399002 0 0 0
4115 1 1 0 -13.578065749684615 37.85776918724441 -27.27833455927931 0 0 0
4114 1 1 0 -12.938550505749085 38.60843131747282 -27.376435521231794 0 0 0
4116 1 1 0 -13.743440897115422 38.595323067094675 -27.89405940068062 0 0 0
4118 1 1 0 -14.725775146293438 39.603616782204995 -27.90181862586426 0 0 0
4117 1 1 0 -13.942886618983357 39.41206221724805 -27.429715950433035 0 0 0
4113 1 1 0 -12.920917886229576 39.53250012356566 -27.250219949897296 0 0 0
4119 1 1 0 -14.936564244091933 40.4937522771799 -28.147136192397717 0 0 0
4120 1 1 0 -14.22516717995378 41.18166462091992 -28.10128444099275 0 0 0
4122 1 1 0 -14.381616265346095 42.51376343692618 -28.185251467693696 0 0 0
4123 1 1 0 -13.988817083753688 43.40170080239599 -28.244618823134463 0 0 0
4129 1 1 0 -13.250062762358754 42.78026277688525 -27.419436284539348 0 0 0
4125 1 1 0 -14.160514456381977 44.38444332564287 -27.728902392912065 0 0 0
4130 1 1 0 -12.927270203547712 43.64150326618724 -27.595305288017688 0 0 0
3895 1 1 0 -4.469801847101395 45.55926061092383 -27.665653175772444 0 0 0
3896 1 1 0 -3.564817006346832 45.99647075906176 -27.6144636711633 0 0 0
3898 1 1 0 -2.5813637813159644 46.36814833114462 -28.082610742021078 0 0 0
3897 1 1 0 -2.6893580039359484 46.0640208797414 -27.17851187687839 0 0 0
4112 1 1 0 -12.129474441627089 39.17901128723058 -26.820259676560624 0 0 0
4127 1 1 0 -13.733636345512684 43.34126378885336 -26.525215209360866 0 0 0
4128 1 1 0 -13.489040333228566 42.40516244651332 -26.55067646029188 0 0 0
4126 1 1 0 -13.900067057790404 44.266483940399425 -26.867985477977324 0 0 0
4131 1 1 0 -12.358092328054095 43.55552643630973 -26.767059656862454 0 0 0
3888 1 1 0 -5.027956888506657 44.548746653770486 -26.19559674563668 0 0 0
3894 1 1 0 -5.100452412324532 45.04247918611712 -27.17010258381099 0 0 0
3893 1 1 0 -4.661738060001727 45.404303105924065 -26.464816085993913 0 0 0
2581 1 2 0 -15.290568888439044 49.92972857399869 -26.733244409715446 0 0 0
2580 1 2 0 -14.361175255227725 49.756738463002655 -26.572366115502078 0 0 0
4109 1 1 0 -13.310364387322293 37.22588135328141 -25.597260776384015 0 0 0
4110 1 1 0 -13.086187616170434 38.18297639727523 -25.76987809296791 0 0 0
4111 1 1 0 -12.351769559951586 38.74426167281752 -25.95634833540366 0 0 0
4134 1 1 0 -10.781329359324278 42.88693268104754 -25.585000504424634 0 0 0
4132 1 1 0 -11.883082508635866 43.491813294171166 -25.90940262047479 0 0 0
4133 1 1 0 -10.951739716048872 43.84203229618865 -25.858923114748638 0 0 0
3889 1 1 0 -5.534190173780545 45.23949656081038 -25.678928660401006 0 0 0
3887 1 1 0 -4.625502854933415 44.5921544433036 -25.294813967936587 0 0 0
3890 1 1 0 -5.422414214229852 46.10675167151239 -25.363595498823326 0 0 0
3892 1 1 0 -4.424820016289221 45.88625883848696 -25.63426660330346 0 0 0
2492 1 2 0 -18.657513022606693 48.57521076858537 -25.52016651072592 0 0 0
4012 1 2 0 -19.274395290728467 49.51829637184669 -25.201556362290006 0 0 0
2489 1 2 0 -16.978326263911853 49.78942011283954 -25.042396374512933 0 0 0
2579 1 2 0 -14.957600784388978 49.38401460378084 -25.788500165988236 0 0 0
2577 1 2 0 -14.092953011808142 49.84135420117535 -25.191329616341672 0 0 0
4104 1 1 0 -15.619259071260029 37.42503205166373 -23.97051156056134 0 0 0
4106 1 1 0 -13.836122158325558 37.066015966027116 -24.383237346407306 0 0 0
4107 1 1 0 -13.455527277267215 37.82392887083176 -24.73668577135161 0 0 0
4108 1 1 0 -12.593614287627073 37.55509667949509 -24.966963534302472 0 0 0
4135 1 1 0 -10.801761160352092 43.2696558069483 -24.697122485147204 0 0 0
3885 1 1 0 -5.964781627403069 44.51235172459422 -24.09406160007843 0 0 0
3886 1 1 0 -5.03686833626885 44.46782256506404 -24.421517893882488 0 0 0
3891 1 1 0 -4.8563009831377775 45.63904356124564 -24.797693330848677 0 0 0
3882 1 1 0 -3.952251143230255 45.742295135453716 -23.9461316348725 0 0 0
3881 1 1 0 -3.4986201742505574 46.426360192871336 -24.499855214407127 0 0 0
2480 1 2 0 -14.632249473427246 47.45985036553003 -24.628991629830196 0 0 0
2478 1 2 0 -13.043405262226155 47.58589993733257 -24.428480246843435 0 0 0
2479 1 2 0 -13.781180060026989 47.03473800060379 -24.593815516396464 0 0 0
3879 1 1 0 -4.198714113535421 47.500397461460715 -24.222804205929247 0 0 0
3880 1 1 0 -4.218593994125199 46.89415139941872 -24.951865630436203 0 0 0
2493 1 2 0 -19.09390980268965 48.53483420181663 -24.659281655938575 0 0 0
2494 1 2 0 -18.366746990126135 48.262696268301674 -24.043639064675432 0 0 0
2482 1 2 0 -14.342865733904581 48.171490606545355 -24.06182340455422 0 0 0
2481 1 2 0 -13.914890973673792 47.978216433839165 -24.95259441688947 0 0 0
3530 1 2 0 -13.085106923757417 48.800553162423064 -24.188643687142427 0 0 0
856 1 1 0 -26.4992927840634 49.971784525321404 -24.594623670962758 0 0 0
4015 1 2 0 -20.796749442376484 49.09429636114147 -24.052130871944676 0 0 0
4013 1 2 0 -19.54868669509499 49.56287883476535 -24.278785364480644 0 0 0
2491 1 2 0 -18.081220716383307 49.410935631953706 -24.97454942310941 0 0 0
2488 1 2 0 -16.43587766568391 49.87789611054489 -24.273783601830395 0 0 0
3531 1 2 0 -12.274920532998214 49.21905674123561 -24.099693996615603 0 0 0
4218 1 2 0 -4.384398076017475 31.92121255107367 -22.937722676161076 0 0 0
4102 1 1 0 -16.120781436396776 35.63699827431917 -23.704182254763865 0 0 0
4101 1 1 0 -15.202030821418635 35.54830446603348 -23.37651547044614 0 0 0
4103 1 1 0 -15.995506318758954 36.554238497101 -23.81018464003875 0 0 0
4105 1 1 0 -14.624091100998669 37.33116642968376 -23.839634080545174 0 0 0
4143 1 2 0 -8.077946544437893 40.33914892926041 -22.843871146433486 0 0 0
4139 1 1 0 -8.663089019325014 41.95280914685993 -23.029962533448746 0 0 0
4136 1 1 0 -10.746805031155528 42.80111491674867 -23.834428907820687 0 0 0
4137 1 1 0 -9.92920829295144 43.15946224318464 -23.491314957184805 0 0 0
4138 1 2 0 -9.56518259416623 42.405243362788205 -23.004602413285166 0 0 0
3884 1 1 0 -5.426001131113923 45.22202064772713 -23.75772078283527 0 0 0
2475 1 2 0 -13.933188152404608 46.528184207161836 -22.984339594070356 0 0 0
3883 1 1 0 -4.7439919554038426 45.817651592385985 -23.438674815095638 0 0 0
2476 1 2 0 -13.957379937649787 47.26993685401377 -23.505028412399398 0 0 0
4016 1 2 0 -20.415792559173294 48.46981157249846 -23.26733750966627 0 0 0
2496 1 2 0 -19.394697586164227 48.8620641102077 -23.2532664632709 0 0 0
2497 1 2 0 -18.547360934738286 48.56215802067393 -22.892835099787632 0 0 0
2521 1 2 0 -17.163540465059313 48.84737775633003 -22.908386644529653 0 0 0
2485 1 2 0 -15.890910773701167 48.77859426627991 -23.24351969145415 0 0 0
2483 1 2 0 -14.833126548695148 48.75171261043144 -23.48159341208384 0 0 0
2477 1 2 0 -13.371788939637614 47.98752223017479 -23.665293558887807 0 0 0
3865 1 2 0 -9.245398514583762 48.13891839439202 -23.12799950983479 0 0 0
3866 1 1 0 -8.670286292142304 48.85925929378096 -22.882650426263442 0 0 0
3869 1 2 0 -6.996029082450526 48.859726366356824 -23.400881839202555 0 0 0
3878 1 1 0 -4.845223162850333 48.16022081507584 -23.86034372235654 0 0 0
3427 1 2 0 -21.53024475440495 49.92280601117652 -23.266516212527915 0 0 0
3428 1 2 0 -21.331367719616516 48.933422384439325 -23.138939060357963 0 0 0
4014 1 2 0 -20.285087126827857 49.77055288810565 -23.639943374600634 0 0 0
2500 1 2 0 -19.192336681192973 49.94772557899784 -23.20519450172683 0 0 0
2495 1 2 0 -18.663916948501278 49.162317302970216 -23.83341172650893 0 0 0
2522 1 2 0 -17.402680650549588 49.33825418134895 -23.777030427471747 0 0 0
2487 1 2 0 -16.48462121290302 49.92390995337579 -23.3503839359451 0 0 0
3527 1 2 0 -14.016681947757093 49.803806238580044 -22.983743493243402 0 0 0
3528 1 2 0 -13.733258861737479 49.586932689595436 -23.83453628348718 0 0 0
3529 1 2 0 -13.119442843625512 49.077850131975744 -23.2808671057471 0 0 0
3765 1 2 0 -12.202401151634373 49.48598532416413 -22.929550156326748 0 0 0
3532 1 2 0 -11.550947713768641 49.817193885220775 -23.832167566801157 0 0 0
3870 1 1 0 -6.229869066460509 49.12807968155062 -22.858513552929 0 0 0
3877 1 1 0 -5.058134491919849 49.076104947243735 -23.870136793319524 0 0 0
3876 1 1 0 -5.042327756059064 49.710451432263085 -23.093638111346984 0 0 0
4219 1 2 0 -5.11662578339742 31.45442733677719 -22.565722784311948 0 0 0
4211 1 2 0 -7.051714010699609 31.945494603326505 -21.82026365488798 0 0 0
4216 1 2 0 -5.335189010775732 32.55677600922735 -21.96270949173078 0 0 0
4220 1 2 0 -4.611177071467672 31.639717886588972 -21.77297508218105 0 0 0
4217 1 2 0 -4.388237950695305 32.61771727581632 -22.315637859580537 0 0 0
4159 1 2 0 -3.9466549884732975 33.52973550355169 -21.766292084451177 0 0 0
4099 1 1 0 -15.962916411906676 34.81349193152255 -21.823855858964528 0 0 0
4100 1 1 0 -15.594080791501636 34.856656960480514 -22.736218180899787 0 0 0
4154 1 2 0 -4.511224909970122 36.048408189830106 -22.26039293620775 0 0 0
4153 1 1 0 -4.788417068007265 36.94449006694807 -22.498596128032087 0 0 0
4149 1 2 0 -6.07341261380496 38.64576762850953 -22.109051078733795 0 0 0
4145 1 1 0 -7.200179446813715 39.436646945860076 -22.469819677679446 0 0 0
4142 1 2 0 -8.374849084361134 40.45364694008417 -21.882820128322113 0 0 0
4144 1 1 0 -7.156751435153711 40.47432390981224 -22.65731919916729 0 0 0
4141 1 1 0 -8.614221802186606 41.355376793249654 -22.034528467905204 0 0 0
4140 1 1 0 -7.866043925506379 41.73160459832846 -22.470611851635997 0 0 0
2474 1 2 0 -14.362874449353548 45.913205216576 -22.402340388276585 0 0 0
4019 1 2 0 -19.31923529449659 47.33012961824247 -22.305877007672066 0 0 0
4020 1 2 0 -20.08793902812664 47.335294321921964 -21.73974494713008 0 0 0
2471 1 2 0 -14.907978679364525 47.52791248717096 -21.99576736766942 0 0 0
2472 1 2 0 -14.231680204899499 46.825328290083384 -21.802713253965813 0 0 0
2929 1 2 0 -12.211797796399054 47.127546357951196 -21.838746078725052 0 0 0
3873 1 1 0 -6.399755530917114 47.75248979403067 -21.96439470262088 0 0 0
4017 1 2 0 -20.740633393937554 48.04720212998097 -22.408778040377445 0 0 0
4018 1 2 0 -19.792131056424413 48.1273163171487 -22.53326098025885 0 0 0
2892 1 2 0 -16.341097042131977 48.36670611230088 -22.11689378986639 0 0 0
2484 1 2 0 -15.128899463106366 48.740377351061866 -22.594665638943148 0 0 0
2926 1 2 0 -14.085173868398233 48.88516026823747 -22.577358169135337 0 0 0
2927 1 2 0 -13.211712985121366 48.77306579477999 -22.24903615039048 0 0 0
2928 1 2 0 -12.629567310661423 47.94687030460969 -22.164629403707725 0 0 0
3762 1 2 0 -10.869569199600642 48.52410241439509 -22.06818710572319 0 0 0
3864 1 2 0 -9.370987387321009 48.285634336294336 -22.207716436843462 0 0 0
3874 1 1 0 -5.581341417005214 48.00982795943349 -22.407915237423317 0 0 0
3875 1 1 0 -5.124795649985283 48.86678327323308 -22.599916727232053 0 0 0
3430 1 2 0 -21.628951066336004 49.652396691843144 -21.774383743756395 0 0 0
3429 1 2 0 -20.939555543974123 49.208843546172865 -22.302689670087858 0 0 0
2498 1 2 0 -18.094532897095856 49.30557526423304 -22.479799282071276 0 0 0
2499 1 2 0 -19.026626678830763 49.49222940707011 -22.389135198045246 0 0 0
2520 1 2 0 -17.130192717917136 49.74453292234046 -22.600745821693195 0 0 0
2486 1 2 0 -16.137118086288506 49.38706020853781 -22.54158304014056 0 0 0
2895 1 2 0 -16.892382079610037 49.20981328357193 -21.782416709310926 0 0 0
3764 1 2 0 -11.28804913802708 49.1478082864287 -22.7844783164714 0 0 0
3766 1 2 0 -11.561068312357365 49.86093223160109 -22.21856054412755 0 0 0
3763 1 2 0 -10.471914897024867 49.35411550440001 -22.43409791896044 0 0 0
3867 1 2 0 -7.996517625658086 49.047179572245184 -22.196828499905337 0 0 0
3868 1 1 0 -7.138453706766936 49.32725034977795 -22.62005782786274 0 0 0
3871 1 1 0 -5.92521132404583 49.16036282752485 -21.96401140717203 0 0 0
4222 1 2 0 -3.2408255890864126 31.10511733089057 -21.060130894634177 0 0 0
4221 1 2 0 -4.220305558054538 31.298537662311453 -20.947580556681626 0 0 0
4210 1 2 0 -7.274714828500047 31.93037732448205 -20.845793906902035 0 0 0
4213 1 2 0 -5.330023388324725 32.16229535721936 -20.871582156680997 0 0 0
4212 1 2 0 -6.098053857666066 32.00789223170442 -21.542757321388564 0 0 0
4214 1 2 0 -4.454008319782185 32.413386840895555 -21.170522803017963 0 0 0
4097 1 1 0 -15.671922426309312 33.540713020485285 -20.81478523528147 0 0 0
4095 1 1 0 -14.031446182073386 33.40448276744429 -21.125217160485764 0 0 0
4215 1 2 0 -4.888020068827026 33.21597278065711 -21.428046119375306 0 0 0
4161 1 2 0 -3.0989277781480724 33.04012293194024 -20.85026017734153 0 0 0
4098 1 1 0 -15.573099545880563 33.95528426411833 -21.69223993164952 0 0 0
4158 1 1 0 -4.422157411084029 34.28924774135079 -21.46098439291891 0 0 0
4160 1 2 0 -3.305881795887227 33.95119992288093 -21.18356904415507 0 0 0
4156 1 2 0 -4.3628151164207445 35.43960071658192 -21.5043053625245 0 0 0
4157 1 2 0 -5.182389982287332 34.90641952715156 -21.61761263328302 0 0 0
4155 1 2 0 -5.209491384266268 35.920955211349906 -21.629626060125695 0 0 0
4151 1 1 0 -4.60112363770711 37.89857124750062 -21.66169430090405 0 0 0
4152 1 2 0 -4.370711709799275 37.005367425883655 -21.59035654710116 0 0 0
4150 1 2 0 -5.323991435434993 38.57482855812472 -21.419334930485793 0 0 0
4146 1 2 0 -7.162739961865272 39.76067274014803 -21.56595508934305 0 0 0
4147 1 2 0 -7.034370967613438 39.155767061700075 -20.803080042982266 0 0 0
4148 1 2 0 -6.214574918333408 39.16263658705729 -21.25374847125147 0 0 0
2473 1 2 0 -13.742478033502062 45.982038803749994 -21.713985472857747 0 0 0
2930 1 2 0 -12.366229129178778 46.57764403505392 -21.088548887953415 0 0 0
4021 1 1 0 -20.48758629031257 47.24811398828712 -20.839462257071304 0 0 0
4026 1 2 0 -18.606579830632604 47.80275880033564 -20.681310488290013 0 0 0
2470 1 2 0 -14.902345728075066 47.47091399740715 -20.98667398186986 0 0 0
2931 1 2 0 -12.877434846058671 47.43687473891408 -20.989060698761858 0 0 0
3432 1 2 0 -21.427409075728857 48.88483007040064 -20.779461112247205 0 0 0
3431 1 1 0 -21.997774540490674 48.78598190955122 -21.560367731887126 0 0 0
2905 1 2 0 -18.029568752788098 48.66298996975418 -20.87558958534884 0 0 0
2893 1 2 0 -16.649585803565564 48.231846921104435 -21.217951888875284 0 0 0
2891 1 2 0 -15.608509594795443 48.215972044269655 -21.584325335018274 0 0 0
2890 1 2 0 -15.784810335349317 48.10516214362148 -20.673032498101524 0 0 0
2925 1 2 0 -14.330437105678257 48.90754422678693 -21.59820139692158 0 0 0
2932 1 2 0 -13.338685934508236 48.29314519932253 -21.193805162031165 0 0 0
2933 1 2 0 -12.527037155818379 48.45454782181386 -20.6819408418215 0 0 0
3856 1 2 0 -8.176622103425846 48.67754195670575 -20.80026849418055 0 0 0
3872 1 1 0 -6.029202070185651 48.38753397932835 -21.434392437611667 0 0 0
2795 1 2 0 -20.291419741526667 49.47757674826444 -21.524198151842636 0 0 0
2896 1 2 0 -17.424321891223947 49.48273003040144 -21.0234840724954 0 0 0
2894 1 2 0 -16.275123469136545 49.10780666123114 -21.045396448337282 0 0 0
2924 1 2 0 -15.088575706536139 49.37518626068834 -21.10320719545816 0 0 0
3760 1 2 0 -12.406824230329317 49.27305983221934 -21.37008836453161 0 0 0
3754 1 2 0 -10.674821437304162 49.70957803625043 -21.38948257271734 0 0 0
3761 1 2 0 -11.505028224285178 48.989154021245 -21.5125259367289 0 0 0
3863 1 2 0 -9.096659576607722 49.06502792597465 -21.728954922720526 0 0 0
3862 1 2 0 -8.703321612236381 49.933589534390734 -21.57836340055938 0 0 0
3857 1 1 0 -7.657997040142317 49.43642807721088 -20.952793000210097 0 0 0
4201 1 2 0 -9.26992894481112 29.32399564899271 -19.79491505619042 0 0 0
4200 1 2 0 -9.961269188666387 30.045807275327814 -19.9102577971642 0 0 0
4205 1 2 0 -7.191371399963282 30.426059297367832 -19.83662508977539 0 0 0
4206 1 1 0 -7.965240432171773 30.978288758243554 -19.729585810853287 0 0 0
4165 1 1 0 -5.528554682347933 31.31578987072236 -19.69099607302165 0 0 0
4164 1 2 0 -4.584650555980233 31.43663039967917 -19.808781923559337 0 0 0
4223 1 2 0 -3.48842372341311 30.8022841341522 -20.145616892594514 0 0 0
4224 1 2 0 -2.6814487458807217 30.9045727327374 -19.685816708561422 0 0 0
4208 1 1 0 -8.026267786041624 32.16199311080576 -19.658321126663118 0 0 0
4163 1 2 0 -3.972137118255047 32.2211386370773 -19.937788246727337 0 0 0
4227 1 2 0 -0.9199412732198188 31.778491037892234 -19.687676167633526 0 0 0
4096 1 1 0 -14.788101615558167 33.16925711762275 -20.57847838156831 0 0 0
4094 1 1 0 -13.845658470857035 33.39830818649608 -20.21096481546858 0 0 0
4209 1 2 0 -7.6327909085696515 32.692161463693395 -20.418706563896638 0 0 0
4162 1 1 0 -3.5087308045197947 33.04424244132433 -20.000105701968316 0 0 0
4093 1 1 0 -13.608135416094973 34.25093763622107 -19.93637649417952 0 0 0
4187 1 1 0 -9.3880206017776 34.6084605052052 -19.71796047751142 0 0 0
4022 1 1 0 -20.443748280239017 47.119654242442245 -19.901389159261154 0 0 0
4027 1 2 0 -18.194877042049132 47.69073496779228 -19.843391772828394 0 0 0
2884 1 2 0 -16.68698234660629 47.7940621338323 -19.79791439705882 0 0 0
2469 1 2 0 -14.798049600026939 47.7184317247694 -19.99973033441253 0 0 0
2934 1 2 0 -11.879279394936617 47.74994470157975 -20.431461079711934 0 0 0
3848 1 2 0 -10.782995797284633 47.32161918124127 -19.85498365677652 0 0 0
3433 1 1 0 -21.916720141035956 48.07936357644069 -20.47685186591255 0 0 0
4023 1 2 0 -20.379581114651195 48.051997685371134 -19.61418480869568 0 0 0
4024 1 2 0 -20.048138167393972 48.32731086208828 -20.44045966258524 0 0 0
4025 1 2 0 -19.257741394544844 47.998709358062435 -20.010686641803126 0 0 0
2903 1 2 0 -18.37056507496606 48.69732211595755 -19.751134892986077 0 0 0
2906 1 2 0 -17.36012959608506 48.70128473564657 -20.187614705733573 0 0 0
2889 1 2 0 -16.137506549739538 48.6783465083204 -19.966136032481884 0 0 0
2921 1 2 0 -14.506425233641032 48.768306702383825 -20.376100218226988 0 0 0
2936 1 2 0 -13.170020088500351 48.58049848760882 -20.0254407471462 0 0 0
2935 1 2 0 -12.651275837683286 47.83937601409058 -19.820018413938698 0 0 0
3846 1 2 0 -10.940132580465152 48.28816309977697 -20.18981984101687 0 0 0
3852 1 2 0 -9.737052958199797 48.46378407068783 -20.28918580340905 0 0 0
3853 1 1 0 -9.024886425461453 47.861831283376524 -20.521875606276847 0 0 0
3854 1 2 0 -8.238689142633557 48.01452775793044 -19.96857027067626 0 0 0
3435 1 2 0 -22.558128393429868 48.95122069371917 -19.834603021392933 0 0 0
3437 1 2 0 -23.254500371013858 49.741080651609025 -20.305298935805972 0 0 0
2850 1 2 0 -21.69202161262889 49.83425825817589 -19.588590551396692 0 0 0
2849 1 2 0 -22.172179778682974 49.6797416227088 -20.391761848854134 0 0 0
2793 1 2 0 -20.687384334348412 49.039454321978305 -20.011993819690773 0 0 0
2794 1 2 0 -20.1824635847202 49.548222601704616 -20.609349973673 0 0 0
2904 1 2 0 -18.8081666550636 49.104120359718394 -20.47232427334955 0 0 0
2898 1 2 0 -18.23637195716054 49.97823474690723 -20.2534983043525 0 0 0
2907 1 2 0 -16.81485202295883 49.522553823504516 -20.03810117855281 0 0 0
2923 1 2 0 -15.361360357387408 49.24988397166844 -20.226753520073 0 0 0
2920 1 2 0 -14.108029394126552 49.665205466069786 -20.586902229899184 0 0 0
2937 1 2 0 -13.561337944939558 49.43185988028298 -19.757019631348165 0 0 0
3759 1 2 0 -12.647820214252707 49.65314421395395 -20.423946624702843 0 0 0
3757 1 2 0 -11.772647323841774 49.43786758774105 -20.16924547543106 0 0 0
3845 1 2 0 -10.67349803767233 49.261282910821954 -20.23525452605622 0 0 0
3844 1 2 0 -10.028643626372043 49.24522466021978 -19.586290519278002 0 0 0
3855 1 1 0 -7.964403805113584 49.000170317689374 -19.93990574972844 0 0 0
4198 1 2 0 -11.258271245064277 29.3232140890809 -19.006296140387754 0 0 0
4199 1 2 0 -10.319110617382824 29.438114478341102 -19.19427769216464 0 0 0
4202 1 2 0 -9.336671700097908 29.65653811246806 -18.891180247620056 0 0 0
4203 1 1 0 -8.420268947641553 29.887746822601617 -18.606541576994577 0 0 0
4196 1 2 0 -10.985926371692857 30.673724709004947 -18.8055979576803 0 0 0
4204 1 1 0 -7.691321927936067 30.493052680610322 -18.929933909898534 0 0 0
4207 1 1 0 -8.34439398086938 31.500605757372032 -19.00185261944894 0 0 0
4231 1 2 0 -0.36902524546984483 31.437174149040093 -18.554442029547094 0 0 0
4166 1 1 0 -5.74889515344497 31.820582511575534 -18.956670983981695 0 0 0
4225 1 2 0 -2.310362173300715 31.74412251636905 -19.28917324693529 0 0 0
4226 1 1 0 -1.4055174222444826 31.734777453447848 -18.927165665308692 0 0 0
4228 1 2 0 -0.2500779104670952 32.2775799606163 -19.12997320863225 0 0 0
4092 1 1 0 -13.603622284316751 33.51367180742287 -19.288400798148025 0 0 0
4091 1 1 0 -14.240572535209527 34.19219108162331 -18.934192035761647 0 0 0
4188 1 1 0 -9.595222462479192 33.915501142678465 -19.148814463179203 0 0 0
4186 1 1 0 -8.582253800100231 34.78702532355785 -19.255558597365113 0 0 0
4028 1 2 0 -18.418400221949447 47.30713996225469 -18.999237297284047 0 0 0
2883 1 2 0 -17.280156846211746 47.3937490363413 -19.291175241253264 0 0 0
2885 1 2 0 -16.442371921928782 47.73665181008597 -18.887619672899575 0 0 0
2468 1 2 0 -14.415684050249068 47.76208330192924 -19.133717798558838 0 0 0
3849 1 1 0 -10.003859313709897 47.202624929381656 -19.249088830657424 0 0 0
3850 1 2 0 -9.222957881494672 47.66989710774329 -19.44491450910128 0 0 0
3434 1 2 0 -22.08765805795741 48.140493390783 -19.546206668963283 0 0 0
3444 1 2 0 -20.64371887188711 48.815808392332734 -18.797324476263466 0 0 0
3446 1 2 0 -19.24178461038382 48.03898148711668 -18.79959257736324 0 0 0
2882 1 2 0 -17.44425839355463 48.17776043039857 -18.604633555673185 0 0 0
2887 1 2 0 -15.612489587123765 48.74375476962282 -18.90248189740028 0 0 0
2886 1 2 0 -15.63802369502595 47.896052393920556 -19.360262226019582 0 0 0
2467 1 2 0 -15.069785356042521 47.88903040920159 -18.485353569829066 0 0 0
3847 1 2 0 -11.386047810640738 47.94189380885038 -19.447142267725297 0 0 0
3851 1 2 0 -9.959499902454214 48.22834398891586 -19.378427923619583 0 0 0
3436 1 1 0 -23.438591181469427 49.15939433772545 -19.55018965551555 0 0 0
3443 1 2 0 -21.02553384900519 49.745281091724856 -18.806251968595443 0 0 0
2791 1 2 0 -20.006700748764793 49.76396986422227 -18.573976416222497 0 0 0
2792 1 2 0 -20.144433649305686 49.66384825323361 -19.49665762187996 0 0 0
2902 1 2 0 -19.188500507242356 48.98877013355196 -19.314531997574125 0 0 0
2900 1 2 0 -18.73974243719359 49.934745486465914 -19.1883783239505 0 0 0
2901 1 2 0 -18.725604864166986 49.300448213028716 -18.50369170918729 0 0 0
2880 1 2 0 -17.62233965808955 49.40770479037092 -19.148935727215388 0 0 0
2888 1 2 0 -16.53589679068512 49.01976103381294 -19.131889779367242 0 0 0
3516 1 2 0 -15.865270090641728 49.91585582924793 -19.008803678543615 0 0 0
2922 1 2 0 -14.709134530477431 49.03278242479897 -19.49581420258544 0 0 0
2938 1 2 0 -13.849498270523947 49.190943285631484 -18.807932212462983 0 0 0
944 1 2 0 -12.784491115680868 49.52675124417305 -19.072617500162668 0 0 0
945 1 2 0 -11.825501191641935 49.72102187706755 -19.056223844158584 0 0 0
946 1 2 0 -10.977431735485185 49.237738561126186 -19.074179101387475 0 0 0
4197 1 1 0 -11.353021404976039 29.920972274199386 -18.274571068032376 0 0 0
4195 1 1 0 -10.510168251685217 30.791543205143554 -17.969305685673458 0 0 0
4233 1 2 0 -1.0169666081202067 31.007543303584608 -17.43260791746631 0 0 0
4167 1 2 0 -6.5694024050145226 31.558501866857064 -18.447534759445436 0 0 0
4168 1 2 0 -6.187699415471477 31.70835246293211 -17.58754176515439 0 0 0
4232 1 1 0 -0.9743579702567188 31.84414527202813 -17.861477758928377 0 0 0
4190 1 1 0 -9.3590395791169 33.68202916982441 -18.06028753425939 0 0 0
4191 1 1 0 -9.410109323245932 32.71726403951232 -17.971937185041167 0 0 0
4179 1 1 0 -7.67026642171608 32.84385919735592 -17.95653573220623 0 0 0
4180 1 1 0 -7.224664544282633 33.61403365771173 -18.2113185919935 0 0 0
4090 1 1 0 -14.61137066029282 34.48491394323982 -18.077082590397964 0 0 0
4089 1 1 0 -13.695192133779907 34.078660904509505 -18.071666053586636 0 0 0
4088 1 1 0 -12.949654697713681 34.73504882022109 -18.030601486093065 0 0 0
4189 1 1 0 -9.826219977308934 34.44546124473655 -18.391900597609986 0 0 0
4181 1 1 0 -7.579018914385136 34.18868941438543 -17.55814043928566 0 0 0
4087 1 1 0 -12.66537803015369 35.6141161571441 -17.803149927899057 0 0 0
4185 1 1 0 -8.765605093283902 35.412899424020715 -18.469603056384297 0 0 0
4184 1 2 0 -8.874618486499264 35.28713700000412 -17.453959432254077 0 0 0
4183 1 1 0 -8.06726459664874 35.72985013630871 -17.801703799971282 0 0 0