pair_style     lj/cut 3.0
read_data      ${input}
read_data      init.dat
Reading data file ...
  orthogonal box = (-50 10 -50) to (50 100 25)
  1 by 1 by 1 MPI processor grid
  reading atoms ...
  5913 atoms
  reading velocities ...
  5913 velocities
  scanning bonds ...
  1 = max bonds/atom
  reading bonds ...
  5912 bonds
Finding 1-2 1-3 1-4 neighbors ...
  special bond factors lj:    0        0        0       
  special bond factors coul:  0        0        0       
     2 = max # of 1-2 neighbors
     2 = max # of 1-3 neighbors
     4 = max # of 1-4 neighbors
     6 = max # of special neighbors
  special bonds CPU = 0.002 seconds
  read_data CPU = 0.036 seconds
neighbor       0.3  bin
neigh_modify   every 1 delay 0 check yes
reset_timestep 0

#Output
thermo         1000
thermo_style   custom cpuremain step temp evdwl ebond pe
dump           20 all custom 5000 ${output}_traj id type x y z
dump           20 all custom 5000 run_traj id type x y z

# Minimisation with excluded volume

# Potential information
bond_style     hybrid harmonic fene
bond_coeff     1 fene 30.0 1.5 1.0 1.0
bond_coeff     2 harmonic 300.0 1.13
pair_modify    shift yes mix arithmetic
special_bonds  lj 1.0 1.0 1.0 coul 1.0 1.0 1.0
Finding 1-2 1-3 1-4 neighbors ...
  special bond factors lj:    1        1        1       
  special bond factors coul:  1        1        1       
     2 = max # of 1-2 neighbors
     6 = max # of special neighbors
  special bonds CPU = 0.001 seconds

##################################################
#short run:switch on all potentials
##################################################
pair_coeff     *  *  1.0  1.0  1.122462048
pair_coeff     1  1  0.3  1.0  1.8
pair_coeff     2  2  1.0  1.0  1.8

fix wall all wall/lj126 zhi EDGE 1.0 1.0 1.122462048 zlo EDGE 1.0 1.0 1.122462048 xhi EDGE 1.0 1.0 1.122462048 xlo EDGE 1.0 1.0 1.122462048 yhi EDGE 1.0 1.0 1.122462048 ylo EDGE 1.0 1.0 1.122462048 units box

fix            1 all nve
fix            2 all langevin 1.00 1.00 1.0 ${seed}
fix            2 all langevin 1.00 1.00 1.0 1

reset_timestep 0
timestep       0.01
run            10000
  generated 0 of 1 mixed pair_coeff terms from arithmetic mixing rule
WARNING: Use special bonds = 0,1,1 with bond style fene (src/MOLECULE/bond_fene.cpp:181)
Neighbor list info ...
  update every 1 steps, delay 0 steps, check yes
  max neighbors/atom: 2000, page size: 100000
  master list distance cutoff = 2.1
  ghost atom cutoff = 2.1
  binsize = 1.05, bins = 96 86 72
  1 neighbor lists, perpetual/occasional/extra = 1 0 0
  (1) pair lj/cut, perpetual
      attributes: half, newton on
      pair build: half/bin/newton
      stencil: half/bin/3d
      bin: standard
Per MPI rank memory allocation (min/avg/max) = 10.82 | 10.82 | 10.82 Mbytes
CPULeft Step Temp E_vdwl E_bond PotEng 
           0        0    1.0257157  0.051339241    20.727547    20.778886 
    22.18473     1000    1.0120767  -0.58828349    21.008661    20.420377 
   19.521236     2000   0.98686451  -0.59976035    21.021377    20.421616 
   17.048964     3000   0.98084821  -0.57320825    20.999139    20.425931 
   14.584584     4000    1.0076912  -0.59724386    21.001545    20.404302 
   12.155206     5000    1.0010018  -0.62452513    21.008417    20.383892 
   9.7202724     6000    0.9956647   -0.5784183     20.99561    20.417191 
   7.2903987     7000    1.0195959  -0.56560742     21.00582    20.440213 
   4.8567904     8000   0.99713723  -0.61234055    21.024368    20.412028 
   2.4269883     9000    1.0032485  -0.57460963    20.997966    20.423356 
           0    10000    1.0112698  -0.57880188    21.000895    20.422093 
Loop time of 24.282 on 1 procs for 10000 steps with 5913 atoms

Performance: 355819.212 tau/day, 411.828 timesteps/s
99.6% CPU use with 1 MPI tasks x 1 OpenMP threads

MPI task timing breakdown:
Section |  min time  |  avg time  |  max time  |%varavg| %total
---------------------------------------------------------------
Pair    | 7.1521     | 7.1521     | 7.1521     |   0.0 | 29.45
Bond    | 1.438      | 1.438      | 1.438      |   0.0 |  5.92
Neigh   | 10.919     | 10.919     | 10.919     |   0.0 | 44.97
Comm    | 0.13586    | 0.13586    | 0.13586    |   0.0 |  0.56
Output  | 0.020727   | 0.020727   | 0.020727   |   0.0 |  0.09
Modify  | 4.294      | 4.294      | 4.294      |   0.0 | 17.68
Other   |            | 0.3222     |            |       |  1.33

Nlocal:           5913 ave        5913 max        5913 min
Histogram: 1 0 0 0 0 0 0 0 0 0
Nghost:              0 ave           0 max           0 min
Histogram: 1 0 0 0 0 0 0 0 0 0
Neighs:          40908 ave       40908 max       40908 min
Histogram: 1 0 0 0 0 0 0 0 0 0

Total # of neighbors = 40908
Ave neighs/atom = 6.9183156
Ave special neighs/atom = 1.9996618
Neighbor list builds = 2543
Dangerous builds = 0
unfix          2

write_data     mid_config.dat
System init for write_data ...
  generated 0 of 1 mixed pair_coeff terms from arithmetic mixing rule
WARNING: Use special bonds = 0,1,1 with bond style fene (src/MOLECULE/bond_fene.cpp:181)
WARNING: Not all mixed pair coeffs generated from mixing. Use write_data with 'pair ij' option to store all pair coeffs. (src/write_data.cpp:309)
##################################################
###Turn on reactions
#################################################

fix wall all wall/lj126 zhi EDGE 1.0 1.0 1.122462048 zlo EDGE 1.0 1.0 1.122462048 xhi EDGE 1.0 1.0 1.122462048 xlo EDGE 1.0 1.0 1.122462048 yhi EDGE 1.0 1.0 1.122462048 ylo EDGE 1.0 1.0 1.122462048 units box

fix            1 all nve
fix            2 all langevin 1.00 1.00 1.0 ${seed}
fix            2 all langevin 1.00 1.00 1.0 1

#Recoloring
fix            3 all kawasaki 10 10 ${seed} 1.0
fix            3 all kawasaki 10 10 1 1.0
fix            4 all atom/flip 1000 1 ${seed} 1 2 0.2
fix            4 all atom/flip 1000 1 1 1 2 0.2

reset_timestep 0
timestep       0.01
run            200000
  generated 0 of 1 mixed pair_coeff terms from arithmetic mixing rule
WARNING: Use special bonds = 0,1,1 with bond style fene (src/MOLECULE/bond_fene.cpp:181)
Neighbor list info ...
  update every 1 steps, delay 0 steps, check yes
  max neighbors/atom: 2000, page size: 100000
  master list distance cutoff = 2.1
  ghost atom cutoff = 2.1
  binsize = 1.05, bins = 96 86 72
  2 neighbor lists, perpetual/occasional/extra = 1 1 0
  (1) pair lj/cut, perpetual
      attributes: half, newton on
      pair build: half/bin/newton
      stencil: half/bin/3d
      bin: standard
  (2) fix kawasaki, occasional
      attributes: full, newton on
      pair build: full/bin
      stencil: full/bin/3d
      bin: standard
Per MPI rank memory allocation (min/avg/max) = 11.46 | 11.46 | 11.46 Mbytes
CPULeft Step Temp E_vdwl E_bond PotEng 
           0        0    1.0112698  -0.57880188    21.000895    20.422093 
   480.48142     1000   0.98148311  -0.58288749    21.013504    20.430616 
   480.42149     2000    1.0178201   -0.6083985     21.00767    20.399272 
   477.78601     3000   0.99601224  -0.57080897    21.015792    20.444983 
   475.84404     4000    1.0230701  -0.60450421     21.00896    20.404456 
    474.2457     5000   0.98916248  -0.61515976     21.01919     20.40403 
    471.5182     6000    1.0175028  -0.58374603    21.010255    20.426509 
   468.86003     7000   0.99907575  -0.59263954    21.006584    20.413944 
   466.31856     8000    1.0035312  -0.57299263    20.993901    20.420909 
   463.77106     9000   0.99500511  -0.57317512    20.989444    20.416269 
   461.49255    10000    1.0167595  -0.54605945    20.975612    20.429553 
    606.3588    11000    1.0148498  -0.59981876    21.004332    20.404513 
   725.34472    12000   0.98995683  -0.59157878    20.999927    20.408349 
   824.12284    13000   0.99671706   -0.5932624    20.998574    20.405312 
   907.09987    14000    1.0085586  -0.59398043     21.02828      20.4343 
   976.41367    15000     1.006261  -0.57912807    21.011989    20.432861 
   1035.2197    16000   0.99069346   -0.5786102    21.007957    20.429347 
   1085.8199    17000    1.0097536  -0.58976903     21.00995    20.420181 
   1129.9118    18000   0.99712592  -0.55740505    21.007564    20.450159 
   1168.2771    19000    1.0249531  -0.58386976    20.986096    20.402226 
   1202.1381    20000   0.99201189  -0.57852667    20.987759    20.409232 
   1231.6109    21000    1.0063126  -0.57271033    20.998571     20.42586 
     1257.33    22000   0.98198677  -0.60369324    20.989593    20.385899 
   1279.4114    23000     1.007245  -0.55159998    21.003106    20.451506 
   1298.5879    24000    1.0243215  -0.57059891    20.969726    20.399127 
   1316.2511    25000    1.0066921  -0.59385778     21.01037    20.416513 
   1331.0215    26000   0.98916785  -0.57156502     20.99497    20.423405 
   1344.4328    27000    1.0039988  -0.59918159    21.035459    20.436277 
   1355.7513    28000   0.99925881  -0.57892317    21.000168    20.421245 
    1365.549    29000    1.0064832  -0.59464306     20.99063    20.395987 
   1374.3359    30000      1.00123  -0.57881156    21.009519    20.430708 
   1381.6095    31000   0.99809659   -0.5984767    21.012995    20.414518 
    1387.761    32000   0.99352617  -0.58853073    21.003551     20.41502 
   1392.6683    33000   0.98230135  -0.57240286    20.995842    20.423439 
    1396.532    34000    1.0000639  -0.57961768    21.013503    20.433886 
   1399.6927    35000   0.98479145   -0.5853698    21.026784    20.441414 
   1402.3886    36000   0.99632498  -0.59498347    21.000813     20.40583 
   1404.2659    37000   0.99700625  -0.56839884     20.99828    20.429881 
   1405.3424    38000    1.0051927  -0.58362929    20.999594    20.415964 
   1405.5885    39000    1.0228528  -0.57463203     20.98335    20.408718 
   1405.5331    40000    1.0121257  -0.59513175    21.013351    20.418219 
   1404.9126    41000   0.99843422  -0.59530694    20.996251    20.400944 
    1403.862    42000    1.0055144  -0.59000722    21.025096    20.435089 
   1402.2831    43000    1.0133715  -0.58890337     21.00866    20.419757 
   1400.3072    44000    1.0038724  -0.58318497    20.993042    20.409857 
   1398.0463    45000    1.0016421  -0.59363009    21.017001    20.423371 
   1395.2266    46000     1.013517  -0.58278669    21.017001    20.434214 
   1392.0575    47000   0.98520789  -0.56924763    20.984643    20.415395 
    1388.467    48000    1.0037581  -0.58630563    21.017333    20.431028 
   1384.4616    49000    1.0273207  -0.57029012    20.995759    20.425469 
   1380.2878    50000   0.99438716   -0.5510232    21.007842    20.456818 
   1375.7685    51000    1.0083772  -0.57684931    20.989941    20.413092 
   1370.9975    52000   0.99968476  -0.56164269    21.004509    20.442866 
   1365.9705    53000   0.99745141  -0.55454346    20.982164     20.42762 
   1360.7555    54000   0.98560363  -0.58990029    20.994117    20.404217 
   1355.4556    55000   0.97755955  -0.58107426    21.004488    20.423413 
   1349.9951    56000    1.0127016  -0.58552505    21.004659    20.419134 
   1344.3033    57000    1.0156034  -0.56931135    21.001939    20.432628 
   1338.4173    58000    1.0048056  -0.58457157    20.973799    20.389228 
   1332.3322    59000     1.006855  -0.57318513     21.01803    20.444845 
   1326.0534    60000    1.0064108  -0.55694488    21.012452    20.455507 
   1319.4234    61000    1.0012924  -0.58690981     21.00646     20.41955 
   1313.0136    62000    1.0045314  -0.58557586    21.029836     20.44426 
   1306.4196    63000   0.99899722  -0.57040439    21.005311    20.434907 
   1299.5795    64000    1.0097336  -0.59124933    21.009894    20.418645 
   1292.6633    65000   0.99979095  -0.58266545    21.008649    20.425984 
   1285.5951    66000   0.99857569  -0.58884988     20.99757     20.40872 
   1278.3289    67000   0.98457587  -0.57810223    21.026446    20.448344 
   1270.9732    68000    1.0041001  -0.55737799    20.996447    20.439069 
   1263.6584    69000    1.0029406  -0.57069906    21.013142    20.442443 
   1256.2339    70000    1.0021046  -0.57776371    21.017371    20.439608 
   1248.7177    71000     1.000717   -0.5623637    21.000643    20.438279 
   1241.2163    72000   0.99903087   -0.5833404    21.010191     20.42685 
   1233.5904    73000    1.0078669  -0.59496355    21.030743     20.43578 
   1225.9628    74000    1.0061299  -0.58111165     21.00837    20.427258 
   1218.2668    75000   0.99399611  -0.60366284    21.024877    20.421215 
   1210.4333    76000    0.9880235   -0.6041941    21.009354    20.405159 
    1202.589    77000    1.0026223  -0.59175288    21.012572    20.420819 
   1194.6627    78000   0.98891921  -0.56749398    21.008475    20.440981 
   1186.4978    79000    1.0049754  -0.54134767    20.981446    20.440098 
   1178.2452    80000   0.98960408  -0.57993968    21.003625    20.423686 
   1170.0117    81000   0.99492429  -0.58303572    20.997725    20.414689 
   1161.7256    82000   0.96771373  -0.56141525     20.99967    20.438254 
   1153.3638    83000    1.0123448  -0.58745464    21.004394    20.416939 
   1145.0121    84000    0.9858324   -0.5946626    21.007222    20.412559 
   1136.6564    85000    1.0207393  -0.57969107    21.004671     20.42498 
   1128.2275    86000    1.0228229   -0.5650832    20.995255    20.430172 
   1119.5775    87000    1.0061778  -0.54539504    20.975042    20.429647 
   1110.8675    88000     1.000312  -0.54687154    21.000104    20.453232 
   1102.1145    89000    1.0169698  -0.57383607     20.99432    20.420484 
   1093.3903    90000    1.0149014  -0.58396845    21.003773    20.419805 
   1084.5725    91000   0.99165028  -0.56429831    21.013442    20.449143 
   1075.6797    92000    1.0192348  -0.56666181    20.986942     20.42028 
   1066.7577    93000    1.0015838  -0.57220166    20.983512     20.41131 
   1057.8015    94000    1.0098939   -0.5786564    21.007574    20.428917 
   1048.8003    95000    1.0073707  -0.56862295    20.998671    20.430048 
   1039.7227    96000   0.98660323    -0.560227    20.993662    20.433435 
   1030.6443    97000    1.0085468  -0.57937123    20.985843    20.406472 
   1021.5041    98000   0.98908868  -0.55402079    20.986288    20.432267 
   1012.3116    99000   0.98952809  -0.56754763    20.996646    20.429098 
   1003.1431   100000   0.99745869  -0.56641531    20.984705     20.41829 
   993.90839   101000    0.9703249  -0.57676623    21.003122    20.426356 
   984.68289   102000    1.0014097  -0.58860982    21.012286    20.423676 
   975.41284   103000   0.99694696  -0.59125364    21.012275    20.421021 
   966.10371   104000    1.0129135  -0.58044974    20.994856    20.414406 
   956.80166   105000   0.99765924  -0.57927713    20.999156    20.419879 
   947.45418   106000   0.98346791  -0.55845715    20.989202    20.430745 
   938.02928   107000     1.010393  -0.56613872    21.006952    20.440813 
   928.54185   108000    1.0005637  -0.54837274    20.988423     20.44005 
   918.99959   109000   0.99387206  -0.54445924    21.014912    20.470452 
   909.43154   110000    0.9898861  -0.56773278    21.012066    20.444333 
    899.8567   111000   0.98875114  -0.52983976      20.9934     20.46356 
    890.2318   112000     1.006774  -0.54410103    21.006624    20.462523 
   880.61141   113000   0.99698673  -0.55886075     21.01798    20.459119 
   870.99731   114000    1.0146982  -0.55381196    20.984327    20.430515 
   861.37058   115000   0.99549274  -0.56205227    21.000108    20.438056 
   851.68769   116000   0.97989732  -0.54938118    21.005738    20.456357 
   841.96526   117000   0.99337167  -0.56032649    21.007798    20.447471 
   832.25006   118000   0.99839041  -0.55845075    21.006584    20.448133 
    822.5034   119000   0.99310393  -0.53547158    20.982028    20.446556 
   812.76537   120000    1.0001577  -0.57639937    21.029141    20.452742 
   802.99086   121000    1.0034985   -0.5816749    21.011592    20.429918 
   793.18314   122000    1.0101304  -0.55858533    21.000415     20.44183 
   783.38261   123000   0.98626649  -0.57892404    21.017189    20.438265 
   773.56114   124000    1.0205095  -0.55064736    20.991632    20.440985 
    763.7377   125000    1.0000187  -0.55418759    20.996416    20.442228 
    753.8905   126000    1.0008328  -0.55933995    21.000577    20.441237 
      744.03   127000   0.97786017  -0.54733333    21.007386    20.460052 
   734.12246   128000   0.99806448  -0.56710011    20.998855    20.431755 
   724.25854   129000    1.0114061  -0.58292972    21.008354    20.425424 
   714.36018   130000    1.0055978  -0.55829561    21.001819    20.443524 
   704.45664   131000    1.0129054  -0.55019191    21.003232     20.45304 
   694.53793   132000   0.99122561  -0.56978579    20.999023    20.429237 
   684.58659   133000   0.99823375  -0.53058699    20.979598    20.449011 
   674.63532   134000   0.99703431  -0.56973063    21.020819    20.451089 
   664.67946   135000    0.9992259  -0.56096559    21.010313    20.449348 
   654.72006   136000    1.0141723  -0.55958114    20.993931     20.43435 
   644.75097   137000    1.0102971  -0.57569376    21.011489    20.435795 
    634.7799   138000    1.0082123  -0.57156434    21.003872    20.432308 
   624.80437   139000   0.98672217  -0.54281577    20.982186     20.43937 
   614.82918   140000   0.99786092  -0.52829069    20.995342    20.467051 
   604.83793   141000   0.99715274  -0.56698808    21.006657    20.439669 
   594.85414   142000    1.0073058  -0.55031151    20.996078    20.445766 
   584.85391   143000   0.99578229   -0.5588519    20.988163    20.429311 
   574.83169   144000   0.99554101  -0.53916302    21.016156    20.476993 
   564.76194   145000    1.0005489  -0.54514578    21.032596     20.48745 
   554.67024   146000     1.003182  -0.56663572    21.004556    20.437921 
    544.5839   147000    1.0135059  -0.54641529    21.003484    20.457068 
   534.48276   148000    0.9931699  -0.55742961    21.002058    20.444629 
    524.3912   149000    1.0109424   -0.5438765    21.013723    20.469846 
   514.29986   150000    1.0009976  -0.55265282    20.988021    20.435368 
   504.18473   151000    1.0026958  -0.54394124    20.988881     20.44494 
   494.05523   152000     1.001476  -0.55450333    21.014308    20.459805 
   483.91525   153000   0.99089883  -0.53626843    21.009489    20.473221 
   473.76287   154000   0.99127234  -0.53155299    21.003319    20.471766 
   463.61114   155000    1.0102535  -0.54705942    20.997171    20.450111 
   453.44623   156000   0.98153136  -0.54471921    20.999975    20.455255 
    443.2632   157000   0.99394903   -0.5557418    21.018852     20.46311 
   433.10039   158000   0.99530856  -0.55360334    21.007264     20.45366 
   422.91139   159000   0.99895091    -0.550939    21.013657    20.462718 
   412.74521   160000   0.99031499  -0.56792739    21.014363    20.446435 
   402.57487   161000    1.0002436  -0.54084565    20.998485    20.457639 
   392.38264   162000   0.99919882  -0.55062514    20.992634    20.442009 
   382.17637   163000   0.98988832  -0.54207748    21.005012    20.462935 
   371.96174   164000    1.0073189  -0.53109849    20.980463    20.449365 
   361.73368   165000   0.98763398  -0.52780197    20.988356    20.460554 
    351.4957   166000    0.9942943  -0.53282296    21.010873     20.47805 
   341.25332   167000    1.0137239  -0.54678981    21.003132    20.456342 
   331.01095   168000    0.9967826  -0.52052712    20.996583    20.476056 
   320.76423   169000   0.98757303  -0.54941859    21.003572    20.454154 
   310.52013   170000   0.99316429  -0.54368311    21.025431    20.481748 
   300.26418   171000    1.0030679  -0.56628672    21.028197     20.46191 
   289.99706   172000    1.0105462  -0.56600628    21.038215    20.472209 
   279.72606   173000    1.0038598  -0.53875234    21.004966    20.466214 
   269.44576   174000   0.99968136  -0.55931664    21.026721    20.467404 
   259.15417   175000   0.98709811  -0.55242031    21.012307    20.459887 
   248.85743   176000   0.99902449    -0.536655    21.006611    20.469956 
    238.5504   177000    1.0006691  -0.53858069    21.005168    20.466587 
   228.23522   178000    1.0224473  -0.53348784    20.999918     20.46643 
   217.91542   179000     1.009448  -0.58192577    21.022368    20.440442 
   207.59501   180000    1.0013467  -0.53030378    21.009985    20.479682 
   197.26611   181000   0.99067762   -0.5532484    21.006298     20.45305 
    186.9348   182000   0.99400376  -0.52661786    20.994382    20.467764 
   176.59529   183000    0.9598668  -0.55342319    21.010935    20.457512 
   166.25189   184000    1.0040918   -0.5674275    21.009417     20.44199 
   155.90062   185000   0.99435397  -0.55601315    20.996003     20.43999 
   145.54138   186000   0.97882153  -0.55305018    20.996263    20.443213 
    135.1772   187000    1.0135256   -0.5557921    21.012627    20.456835 
   124.80901   188000    1.0100994  -0.49550761    20.982299    20.486792 
   114.43283   189000    1.0036135  -0.53790233    21.014472    20.476569 
   104.05313   190000   0.99150771   -0.5222307    20.997449    20.475218 
   93.671558   191000    1.0062777  -0.55136015    21.002278    20.450918 
   83.283597   192000    1.0090271  -0.52994893    21.002202    20.472253 
   72.890839   193000   0.99134166  -0.53573244    21.010259    20.474526 
   62.490636   194000   0.99937877  -0.51800623    21.009115    20.491108 
   52.085314   195000     1.022626  -0.51840046    21.000225    20.481824 
   41.676304   196000    0.9962071  -0.51674113    21.006434    20.489693 
   31.263235   197000   0.99810655  -0.52254666    20.991847      20.4693 
   20.846304   198000    1.0021466  -0.53211798    21.013722    20.481604 
   10.424936   199000    1.0100735  -0.52541474    21.001837    20.476422 
           0   200000   0.98893672  -0.53519134    20.993231     20.45804 
Loop time of 2085.36 on 1 procs for 200000 steps with 5913 atoms

Performance: 82863.476 tau/day, 95.907 timesteps/s
99.7% CPU use with 1 MPI tasks x 1 OpenMP threads

MPI task timing breakdown:
Section |  min time  |  avg time  |  max time  |%varavg| %total
---------------------------------------------------------------
Pair    | 139.79     | 139.79     | 139.79     |   0.0 |  6.70
Bond    | 29.152     | 29.152     | 29.152     |   0.0 |  1.40
Neigh   | 254.66     | 254.66     | 254.66     |   0.0 | 12.21
Comm    | 3.4024     | 3.4024     | 3.4024     |   0.0 |  0.16
Output  | 0.4192     | 0.4192     | 0.4192     |   0.0 |  0.02
Modify  | 1651.2     | 1651.2     | 1651.2     |   0.0 | 79.18
Other   |            | 6.775      |            |       |  0.32

Nlocal:           5913 ave        5913 max        5913 min
Histogram: 1 0 0 0 0 0 0 0 0 0
Nghost:              0 ave           0 max           0 min
Histogram: 1 0 0 0 0 0 0 0 0 0
Neighs:          39158 ave       39158 max       39158 min
Histogram: 1 0 0 0 0 0 0 0 0 0
FullNghs:        78014 ave       78014 max       78014 min
Histogram: 1 0 0 0 0 0 0 0 0 0

Total # of neighbors = 78014
Ave neighs/atom = 13.193641
Ave special neighs/atom = 1.9996618
Neighbor list builds = 78799
Dangerous builds = 0
unfix          2

write_data     final_config.dat
System init for write_data ...
  generated 0 of 1 mixed pair_coeff terms from arithmetic mixing rule
WARNING: Use special bonds = 0,1,1 with bond style fene (src/MOLECULE/bond_fene.cpp:181)
WARNING: Not all mixed pair coeffs generated from mixing. Use write_data with 'pair ij' option to store all pair coeffs. (src/write_data.cpp:309)
###################################################

Total wall time: 0:35:09
