LAMMPS data file via write_data, version 14 Dec 2021, timestep = 10000

5913 atoms
2 atom types
5912 bonds
2 bond types

-50 50 xlo xhi
10 100 ylo yhi
-50 25 zlo zhi

Masses

1 1
2 1

Pair Coeffs # lj/cut

1 0.3 1
2 1 1

Atoms # full

567 1 1 0 -10.049606881850286 71.67950837335862 -38.998665955600025 0 0 0
572 1 1 0 -12.228127024882468 73.47242975904014 -39.11719304970062 0 0 0
571 1 1 0 -11.673858841653958 72.8921606829554 -38.54666128580338 0 0 0
568 1 1 0 -10.03783122406898 72.61813138141572 -39.18029611727408 0 0 0
560 1 1 0 -6.854751402060539 72.74169742593249 -38.4890188631328 0 0 0
574 1 1 0 -12.650949785525352 74.6439900883736 -38.81267348855617 0 0 0
565 1 1 0 -9.203650754629932 70.8783887698493 -37.878942042602255 0 0 0
564 1 1 0 -8.287608091727813 70.90866239061573 -37.33111449042633 0 0 0
563 1 1 0 -7.469764833934722 70.98692412871053 -37.819885387361005 0 0 0
566 1 1 0 -9.428335915172603 71.77103347535201 -38.23596300633676 0 0 0
562 1 1 0 -7.738999544639736 71.8973878684168 -37.69075355443891 0 0 0
569 1 1 0 -10.525304075563264 72.57319751696984 -38.30661235876074 0 0 0
570 1 1 0 -10.889115299091184 73.4065622622805 -38.1089302982745 0 0 0
561 1 1 0 -7.251277435836853 72.7430989150397 -37.586710097454386 0 0 0
558 1 1 0 -6.267931136497605 72.89456421722826 -37.3374911904244 0 0 0
518 1 1 0 -3.2319826983160955 73.32917811321411 -37.75786087886344 0 0 0
517 1 1 0 -2.488817663622328 73.03972061805848 -38.256079338630705 0 0 0
573 1 1 0 -12.166898369483933 74.00309483113094 -38.24485647794218 0 0 0
559 1 1 0 -6.726607732236698 73.55400845242835 -37.92428031871748 0 0 0
519 1 1 0 -4.164773564114608 73.56205655348579 -37.5189815398371 0 0 0
575 1 1 0 -12.632683823528412 74.89814690477796 -37.8206892984291 0 0 0
576 1 1 0 -11.860169341381335 74.61074784354561 -37.34143146509335 0 0 0
766 1 1 0 -31.83717235240846 62.66450977389548 -36.70961642378691 0 0 0
763 1 1 0 -32.48579793917935 64.24787461525362 -36.678003946595005 0 0 0
762 1 1 0 -31.71065801099665 64.87156827200083 -36.60548854047351 0 0 0
761 1 1 0 -30.739616713758945 64.86052349468086 -36.45215931306963 0 0 0
760 1 1 0 -30.020658783840705 65.50507865968008 -36.537737417921264 0 0 0
759 1 1 0 -29.341777575432744 65.77292682706741 -37.16299252504127 0 0 0
758 1 1 0 -29.58381730245268 66.71186056663895 -37.18584408312465 0 0 0
724 1 1 0 -21.84739960316777 67.52203153222807 -36.8415223049266 0 0 0
601 1 1 0 -10.201516115044084 67.9982529026713 -36.282413288227445 0 0 0
726 1 2 0 -21.629752307302432 69.24028772322083 -36.51932053647599 0 0 0
725 1 1 0 -21.489254298888728 68.42834210535499 -37.00229682258394 0 0 0
600 1 1 0 -9.907354464971878 68.88288105486559 -36.43717000262398 0 0 0
727 1 1 0 -21.29521415349684 69.9130808725736 -37.135911186768226 0 0 0
598 1 1 0 -9.145290552322342 69.9120102610568 -36.56710224751711 0 0 0
728 1 1 0 -21.994247810645966 70.54016117767041 -36.83153758050285 0 0 0
740 1 1 0 -27.015818258392684 72.4215088437146 -36.99657598812695 0 0 0
741 1 1 0 -26.416150647798062 71.62810652346941 -37.048463851197525 0 0 0
733 1 1 0 -22.813116431786685 72.07727358239387 -36.2822295868366 0 0 0
729 1 1 0 -21.793010750751062 71.48331509652053 -36.80052088129466 0 0 0
730 1 1 0 -21.945791879810095 72.41956236784141 -36.670515980043945 0 0 0
555 1 1 0 -6.89847528683275 71.93747557274396 -36.963888634122235 0 0 0
556 1 1 0 -6.15828117437852 72.36589374196875 -36.527346280137614 0 0 0
739 1 1 0 -26.192170792257244 73.01956665890664 -37.142092537279225 0 0 0
737 1 1 0 -24.92284199084634 72.51965554345124 -36.79970349155241 0 0 0
738 1 1 0 -25.76074986485613 72.83236053451449 -36.297769167470534 0 0 0
734 1 1 0 -23.618975500071613 72.47387359042862 -36.66769617524055 0 0 0
557 1 1 0 -5.385508655814784 72.82231713266363 -36.88525758014597 0 0 0
515 1 2 0 -2.389469724972963 73.4355136214011 -36.618318720001646 0 0 0
516 1 2 0 -2.288354260524214 72.73231401040796 -37.30162365448494 0 0 0
577 1 1 0 -12.681571505032236 74.46719394993289 -36.72636895329735 0 0 0
580 1 1 0 -11.183320317847288 74.28171575317565 -36.54032697699486 0 0 0
524 1 1 0 -6.804375514701002 74.27777738200488 -36.90498464018589 0 0 0
520 1 1 0 -4.876033876670729 73.92726960123312 -37.135542068111235 0 0 0
521 1 1 0 -5.285116640581722 74.16600236996105 -36.280617944280095 0 0 0
578 1 1 0 -11.940411732318156 74.99978963582801 -36.309148717521126 0 0 0
579 1 1 0 -11.051530815888341 75.19853355131917 -36.67607294058297 0 0 0
525 1 1 0 -6.530599913788098 75.21872957116557 -36.90236271795269 0 0 0
765 1 1 0 -32.58133652645065 62.88765651008562 -36.082094665641826 0 0 0
767 1 1 0 -31.25646261933728 62.729887211511176 -35.97056276479942 0 0 0
764 1 1 0 -32.28340872280477 63.777954249198665 -35.85765533866956 0 0 0
768 1 1 0 -31.197021274483014 63.624517920810774 -35.7539637177276 0 0 0
770 1 1 0 -29.462843132332303 63.820801620613075 -35.3538547116399 0 0 0
769 1 1 0 -30.43524903359979 64.02225240979966 -35.26278563085861 0 0 0
772 1 1 0 -29.327708614192137 65.32807528243842 -35.21643058904869 0 0 0
753 1 1 0 -31.83619169148885 67.12485244109455 -35.66099931121887 0 0 0
755 1 1 0 -30.712187499752527 66.1543362942197 -35.478223288786054 0 0 0
756 1 1 0 -30.33157097795454 66.98278797455937 -35.9143785457641 0 0 0
757 1 1 0 -29.54127848905059 66.50174750635952 -36.245502289928446 0 0 0
723 1 1 0 -22.356858151106223 66.94982831868576 -36.201647705462754 0 0 0
722 1 2 0 -21.620138864796807 66.845498722109 -35.57046408316634 0 0 0
721 1 1 0 -20.709599711012096 66.94872320174093 -35.90775341917316 0 0 0
720 1 1 0 -20.795803287891935 67.79787119130269 -35.49938649294604 0 0 0
611 1 1 0 -11.045765939573242 68.18686715672062 -35.80026156253101 0 0 0
602 1 1 0 -9.231798137053898 68.00215705306081 -36.037949364105124 0 0 0
751 1 1 0 -30.89212947927611 68.45284967455362 -35.65468801397211 0 0 0
612 1 1 0 -10.817523695193092 69.10604211608042 -35.76237431802434 0 0 0
603 1 1 0 -9.600084754177383 68.76722478096926 -35.520922607335514 0 0 0
599 1 1 0 -8.966747430558526 69.06476961420545 -36.199988642737544 0 0 0
597 1 1 0 -9.690240153625 70.11371115451782 -35.74880331142003 0 0 0
742 1 2 0 -27.026052462110133 71.32167527969241 -36.21979368328986 0 0 0
596 1 1 0 -9.702710966199113 71.0789926124836 -35.63783170958827 0 0 0
553 1 1 0 -6.792018979108627 71.18933456747087 -35.250623508954234 0 0 0
554 1 1 0 -6.7915706411794075 71.2107786839109 -36.26522380156231 0 0 0
743 1 1 0 -27.450904330198664 71.97672201584497 -35.63588994350963 0 0 0
736 1 1 0 -24.654942018916667 71.81145712601058 -36.147920689710745 0 0 0
735 1 1 0 -24.009650735730347 72.45530316200895 -35.75529470973921 0 0 0
732 1 1 0 -22.73372447539276 72.47409714223967 -35.393524310205386 0 0 0
731 1 1 0 -22.461621771371423 73.04267015991526 -36.122656413437404 0 0 0
510 1 1 0 -3.753032806201792 72.77889600528657 -35.68042405698815 0 0 0
514 1 1 0 -1.630096658255386 72.98301455153718 -36.062251315167764 0 0 0
581 1 1 0 -10.770569362439563 74.25727511175943 -35.55871085360255 0 0 0
527 1 1 0 -6.91443737318452 74.35547172304925 -35.49793391987167 0 0 0
522 1 1 0 -5.8454061286613666 74.18823153482663 -35.4728055984791 0 0 0
523 1 1 0 -6.372819224051914 73.8043495899938 -36.16950694318543 0 0 0
508 1 1 0 -4.510513560095001 73.67838636220641 -35.318867722509744 0 0 0
513 1 1 0 -1.4541013139576402 73.57331682197801 -35.30742617982671 0 0 0
582 1 1 0 -10.448799158589962 75.17459954361925 -35.67336027083254 0 0 0
526 1 1 0 -7.033693091553184 75.2124429903756 -36.0282229932939 0 0 0
802 1 1 0 -32.03916088287229 57.467023894828394 -34.43996802969687 0 0 0
803 1 2 0 -32.19979619214242 58.4620762890037 -34.37775632688212 0 0 0
3585 1 1 0 -6.365370476404132 58.767583729557984 -34.22411457912065 0 0 0
3587 1 1 0 -6.852936744877635 59.84613365242878 -34.46008491171544 0 0 0
3589 1 1 0 -7.91297199970298 60.907246898103146 -34.30902658067489 0 0 0
774 1 1 0 -28.73048157712274 63.921166288197035 -34.586381944164295 0 0 0
771 1 1 0 -29.5809065130498 64.51957521359296 -34.744053161315634 0 0 0
773 1 1 0 -28.624893111571094 64.87416510432338 -34.73901110831528 0 0 0
754 1 1 0 -31.38471521310723 66.6713651765766 -34.93716684860453 0 0 0
752 1 2 0 -31.277984031615304 67.7464778097389 -35.11221886246333 0 0 0
719 1 2 0 -21.606157245627724 68.2303512078378 -35.12740206836918 0 0 0
606 1 1 0 -10.850138512152087 67.91785318569755 -34.17578506728722 0 0 0
604 1 1 0 -9.279187964868788 68.1982869764167 -34.76880510112011 0 0 0
750 1 1 0 -30.35809200669444 68.98045912081486 -35.114333853733505 0 0 0
718 1 1 0 -20.71305710057843 68.48505519839524 -34.68570785619164 0 0 0
609 1 1 0 -12.167669181366408 69.04679904655937 -34.430534783671554 0 0 0
610 1 1 0 -11.603710707714196 68.65252758349074 -35.120167275703295 0 0 0
605 1 1 0 -10.226942295331389 68.46768549282861 -34.599755523769595 0 0 0
614 1 1 0 -9.586157044690465 69.28746661131434 -34.56224438145409 0 0 0
749 1 1 0 -30.23268096091861 69.91957254279379 -35.05602640860066 0 0 0
613 1 1 0 -10.315079028939309 69.55175208930913 -35.12159445463902 0 0 0
748 1 1 0 -30.050561110808708 70.83471170389876 -34.655529858420294 0 0 0
746 1 2 0 -28.86331985172027 70.85878222388091 -34.16573932147452 0 0 0
595 1 1 0 -9.456983439248496 71.29011044800613 -34.71233795431229 0 0 0
552 1 1 0 -7.216397400145427 71.20753440152347 -34.38984656601599 0 0 0
745 1 1 0 -28.646072968460423 71.72203640542517 -34.670878383221726 0 0 0
744 1 1 0 -27.837357303909798 72.27479637710174 -34.81162780072744 0 0 0
594 1 1 0 -9.233259354087298 72.28249919199888 -34.58848167450844 0 0 0
589 1 1 0 -12.219074632160519 73.10549982604105 -34.78412024295342 0 0 0
590 1 1 0 -11.555997727931723 72.57005413616682 -34.30529984836427 0 0 0
591 1 1 0 -10.6152471402756 72.53271108592288 -34.42798814068201 0 0 0
509 1 1 0 -4.528212631522963 72.7158451169973 -35.149283120533084 0 0 0
511 1 1 0 -2.9397067491372937 72.98506232443731 -35.088077764246876 0 0 0
588 1 1 0 -12.275414941178553 73.95008530084006 -34.27636482373559 0 0 0
528 1 1 0 -6.476976367718981 73.71320618185499 -34.851904998874275 0 0 0
507 1 1 0 -4.097604489131533 73.87991302534127 -34.445155698746376 0 0 0
506 1 1 0 -3.4168064210965006 74.55782664948406 -34.74209157713225 0 0 0
512 1 1 0 -2.3769301310710804 73.78729637474484 -35.099049129561465 0 0 0
587 1 1 0 -12.466743380067726 74.78943815417134 -34.72729395549813 0 0 0
586 1 1 0 -11.50487811295033 74.94156420174963 -35.105674733847835 0 0 0
583 1 1 0 -10.607175895494152 75.55503909041842 -34.80252237847876 0 0 0
585 1 1 0 -10.80440212946893 74.64919791623775 -34.45523848344772 0 0 0
505 1 1 0 -3.7354845310492744 75.46419907753514 -34.76361841942978 0 0 0
3914 1 1 0 1.004811814877896 44.711700444347926 -33.49654531881767 0 0 0
3915 1 1 0 0.26849440026489213 45.30115267441269 -33.19096079844057 0 0 0
3954 1 1 0 -4.853812221228476 52.05826464520762 -33.45837207549174 0 0 0
3953 1 1 0 -4.011234727414587 51.45781388537057 -33.25033443925908 0 0 0
3968 1 1 0 -12.262609035010664 54.33873230898501 -33.296758293348695 0 0 0
3967 1 1 0 -11.895314711941575 53.6658262773045 -33.93608342311111 0 0 0
3965 1 1 0 -11.05125330312438 53.726929257902555 -33.21034871675954 0 0 0
3966 1 1 0 -11.388556125919955 54.48377546129259 -33.636329363759366 0 0 0
801 1 1 0 -32.20158979706562 57.03505356603306 -33.54144812527254 0 0 0
3584 1 1 0 -5.907129710486564 58.26183721914521 -33.553955846249075 0 0 0
805 1 1 0 -33.692791246868886 59.3592435608932 -33.51659811302412 0 0 0
804 1 1 0 -32.80673890989491 59.085312940767885 -33.75480754615481 0 0 0
796 1 1 0 -31.399729931622787 59.32502794023495 -33.86314916203237 0 0 0
795 1 1 0 -30.590425916524314 58.83473077536675 -33.823057410468174 0 0 0
794 1 1 0 -29.823033452185307 59.131427767256916 -33.20512254130567 0 0 0
793 1 1 0 -29.009424288016522 59.64008201852317 -33.32238528840283 0 0 0
3586 1 1 0 -5.97692500969073 59.686358650783 -34.1167628045889 0 0 0
792 1 1 0 -29.082313407440356 60.40992760060396 -33.82688537033141 0 0 0
3591 1 2 0 -9.206927181386073 60.445079003099565 -33.308099082454554 0 0 0
3590 1 1 0 -8.256018279072967 60.49903684223922 -33.54869268285188 0 0 0
3588 1 1 0 -7.269913820700747 60.382176810730435 -33.780490743037305 0 0 0
791 1 1 0 -29.652859937083196 60.91521688861357 -33.18622079208647 0 0 0
789 1 1 0 -28.790861994954046 61.723621360927595 -33.467608074585954 0 0 0
788 1 1 0 -28.170472344507722 60.98392411915621 -33.291718947533425 0 0 0
787 1 1 0 -27.454612151518546 61.31206970648798 -33.88878688562188 0 0 0
785 1 1 0 -26.336548092984373 61.84380802487073 -33.350735596061185 0 0 0
786 1 1 0 -26.742649983134648 60.935230307718015 -33.26957858320153 0 0 0
3592 1 1 0 -10.034345261665033 60.960362321187546 -33.45906398574744 0 0 0
784 1 1 0 -26.54907905014307 62.648230564027074 -33.833562374082895 0 0 0
3610 1 1 0 -8.425840507782777 62.53629846866614 -33.94330463581607 0 0 0
3612 1 1 0 -7.162669973106734 62.56504613000566 -33.254092232611576 0 0 0
783 1 1 0 -26.95681873787541 63.284212280081114 -33.24803667900493 0 0 0
3608 1 1 0 -9.143082682378683 63.99634667852922 -33.256424560302186 0 0 0
3609 1 1 0 -9.167784794083115 63.0110994485804 -33.46994624891339 0 0 0
3611 1 1 0 -8.039114710498751 62.955031069705605 -33.16179204300711 0 0 0
3613 1 1 0 -6.947239288338436 63.515863633024956 -33.25449695296431 0 0 0
775 1 1 0 -28.645654482001895 64.07094473375334 -33.629557135019695 0 0 0
3615 1 1 0 -6.152730717087253 64.7553520725889 -33.12419826388909 0 0 0
3621 1 1 0 -3.2847407714153665 64.74134667357171 -33.100720412270874 0 0 0
632 1 1 0 -16.26360498432457 65.89731696823586 -33.220537241904935 0 0 0
3618 1 1 0 -4.931795325144797 65.7161838111115 -33.24283009963852 0 0 0
623 1 1 0 -15.355950624043075 66.97953361238908 -33.63259283797052 0 0 0
619 1 1 0 -12.12087492394969 67.01051842863431 -33.4436471091882 0 0 0
618 1 1 0 -11.250209269375613 66.71737181003398 -33.553401368783746 0 0 0
717 1 1 0 -20.290079289453644 68.12221843057102 -33.89516758509986 0 0 0
625 1 1 0 -16.86031526356911 68.0278951988488 -33.64269182690891 0 0 0
624 1 1 0 -16.24911804235977 67.24131696088664 -33.2932295008782 0 0 0
616 1 1 0 -10.163460734666762 67.98974835261006 -33.41290280126699 0 0 0
608 1 1 0 -12.186518699928822 68.50843383093266 -33.63257252500137 0 0 0
607 1 1 0 -11.317574845636237 68.75375051402261 -34.070276706649786 0 0 0
615 1 1 0 -9.597321112620659 68.69502820634725 -33.78326670143439 0 0 0
747 1 1 0 -29.649243841637357 70.28188185996797 -33.95995227512894 0 0 0
551 1 1 0 -7.208761101399403 71.24938201296409 -33.43421709098304 0 0 0
550 1 1 0 -6.540365063130994 70.60317413862593 -33.26341695870931 0 0 0
593 1 1 0 -9.435183137882907 72.26639187042161 -33.644620379462836 0 0 0
592 1 1 0 -10.019976236541204 72.99811070291662 -33.7914668588418 0 0 0
539 1 1 0 -4.714377578346203 73.4961798891793 -33.591050920856794 0 0 0
529 1 1 0 -6.5972294247760965 73.72863882427174 -33.88355738330539 0 0 0
530 1 1 0 -6.643487834220483 74.58218691553832 -33.34071734282012 0 0 0
538 1 1 0 -5.357170669873681 74.24222810517695 -33.58564232969882 0 0 0
584 1 1 0 -10.051162532188519 75.25166876747743 -34.12650258347365 0 0 0
537 1 1 0 -5.401629685559544 75.15477555965795 -33.85480598702416 0 0 0
503 1 1 0 -3.4236060356864506 74.92311631007536 -33.58450851733477 0 0 0
535 1 1 0 -6.593033058076151 76.44117308040212 -33.47667535274816 0 0 0
536 1 1 0 -5.788725943039007 75.99385909290955 -33.50521371626964 0 0 0
504 1 1 0 -3.651337353774358 75.8800738080213 -33.83956069229996 0 0 0
3923 1 1 0 -2.373282249672932 44.07837508277848 -32.26546225194265 0 0 0
3922 1 1 0 -1.7323956089340948 44.818059176843676 -32.16822038550057 0 0 0
3913 1 1 0 1.2946294842516815 44.35913939288 -32.60208248023376 0 0 0
3912 1 1 0 2.078457047410766 44.138962983121566 -33.08592284191002 0 0 0
3911 1 1 0 2.238405028894854 44.3849342082281 -32.160313171563736 0 0 0
3916 1 1 0 0.8258200264732982 45.47089416907627 -32.33450093831019 0 0 0
3935 1 1 0 -2.5956399483464176 47.858187752408575 -32.103430522124896 0 0 0
3949 1 1 0 -5.130080846216069 50.08949224544154 -32.36103887531863 0 0 0
3946 1 1 0 -3.87168972997957 49.5117518102724 -32.08847390695489 0 0 0
3948 1 1 0 -4.404825809859947 50.28043161925853 -32.972306514462666 0 0 0
3947 1 1 0 -4.154939931540559 50.446258388716245 -32.10058929767363 0 0 0
3978 1 1 0 -15.9080338543233 51.672041448834314 -32.64020875090448 0 0 0
3977 1 1 0 -15.04850626636978 52.07338732737836 -33.036494304493935 0 0 0
3952 1 1 0 -4.612995923326565 51.61397301951622 -32.45044393856176 0 0 0
3976 1 1 0 -14.250062819736181 52.61432875341792 -32.88838978057689 0 0 0
3974 1 1 0 -13.235109201717341 52.615889317932634 -32.06883886169121 0 0 0
3960 1 1 0 -7.529885664139893 52.70355725211253 -32.37401111859229 0 0 0
3955 1 1 0 -5.557933748162124 52.45669362945462 -32.91210972119729 0 0 0
3972 1 1 0 -14.04652655701703 53.65786523990161 -32.123838626129775 0 0 0
3973 1 1 0 -13.106023771005507 53.521008974121465 -32.39428236758463 0 0 0
3964 1 1 0 -10.134663713930586 53.895954953693675 -32.868712133081374 0 0 0
3963 1 1 0 -9.187000898811876 54.13842630726086 -32.833337200967996 0 0 0
3962 1 1 0 -8.499119114060688 53.730620833569 -32.39101636357937 0 0 0
3958 1 1 0 -7.018761368481889 53.65529658402045 -32.38266044649282 0 0 0
3957 1 1 0 -6.2200054268973215 54.0968796277477 -32.73524913562697 0 0 0
3956 1 1 0 -5.4681889726999655 53.46843309549909 -32.81042570995488 0 0 0
3971 1 1 0 -13.58466022318344 54.56120082980564 -32.24769801330922 0 0 0
3970 1 1 0 -13.363487240892308 55.469082916861865 -32.591619166871475 0 0 0
3969 1 1 0 -12.688741317719566 54.81199388958134 -32.61125818687916 0 0 0
800 1 1 0 -32.3962700486418 57.478712992996755 -32.78850358020087 0 0 0
3582 1 1 0 -6.726092803336533 57.52370859446269 -32.3284557649346 0 0 0
799 1 1 0 -32.2351361023626 58.35864396642559 -32.346369054543196 0 0 0
3583 1 1 0 -6.092774867123374 58.17256927811958 -32.60001856568981 0 0 0
807 1 1 0 -33.320513237280565 58.707714714754175 -32.23968029210703 0 0 0
806 1 1 0 -33.16659088640205 59.4812356331238 -32.72823178098506 0 0 0
798 1 1 0 -32.37019447745899 59.27474827678221 -32.06987255336425 0 0 0
797 1 1 0 -31.885858268943714 59.23632368232154 -32.99146908494296 0 0 0
790 1 1 0 -29.220383333118765 61.597360807735626 -32.615152296017264 0 0 0
3593 1 1 0 -10.151144505768796 61.82925783403742 -32.95714544805764 0 0 0
3594 1 2 0 -9.651830667609739 61.751507275167754 -32.070361049002294 0 0 0
782 1 1 0 -26.631774193329363 63.40497786994145 -32.33878896320619 0 0 0
641 1 1 0 -18.807076177487563 63.67645824673818 -32.499887150540225 0 0 0
3600 1 1 0 -12.879140776619202 63.63869282434612 -32.17283465096115 0 0 0
3601 1 1 0 -12.206406084524822 63.48182593878367 -32.87884661847382 0 0 0
3598 1 1 0 -11.294605503949574 63.06248205980373 -32.20239358465765 0 0 0
3605 1 1 0 -10.538625691401641 63.74125658086342 -32.680507501988586 0 0 0
3606 1 1 0 -9.641455877085038 63.88553766997714 -32.43575124756821 0 0 0
3607 1 1 0 -8.721293737331731 63.70179223870271 -32.41291796652261 0 0 0
3614 1 1 0 -6.116097949497375 63.8503318869945 -32.808027218759186 0 0 0
776 1 1 0 -27.787535067152646 64.0367420357475 -33.06397188402301 0 0 0
777 1 1 0 -26.98556005802607 64.36496438700009 -32.57725141515855 0 0 0
635 1 1 0 -17.786189671248753 64.62898457456677 -32.30722701750456 0 0 0
3602 1 1 0 -12.325301496957874 64.4030814454211 -32.65263365350014 0 0 0
3604 1 1 0 -11.418484540431463 64.06683008048077 -32.470083897564976 0 0 0
3619 1 1 0 -4.605535595634239 64.9145041053552 -32.85578416789531 0 0 0
3620 1 1 0 -3.96245992926056 64.22436372457524 -32.62536914729371 0 0 0
634 1 1 0 -17.343127329947226 65.49072104121954 -32.36885384400945 0 0 0
633 1 1 0 -16.58084030069193 65.0629749076009 -32.86763109205342 0 0 0
631 1 1 0 -16.382941321729685 65.89455163825805 -32.23358565209411 0 0 0
3616 1 1 0 -6.103616524613998 65.70184487127106 -32.83563412553961 0 0 0
3617 1 1 0 -5.209551249979327 65.62973471693775 -32.32011142591201 0 0 0
3622 1 1 0 -2.8841311229249067 65.13547059785313 -32.264865362054124 0 0 0
713 1 1 0 -20.62335842623642 66.48111666553986 -32.563379809940656 0 0 0
714 1 1 0 -19.812835863135263 66.94053711156599 -32.63322147866093 0 0 0
628 1 1 0 -17.471073552470706 66.88507842742015 -32.17305932047264 0 0 0
622 1 1 0 -14.719038727745223 66.43181507631141 -33.069553546908566 0 0 0
621 1 1 0 -13.758193460470187 66.65038685739721 -32.98910961530714 0 0 0
620 1 1 0 -12.868137767605639 66.95384536623446 -32.79723304601779 0 0 0
716 1 2 0 -20.07599284807853 67.78639099905527 -33.00509707555273 0 0 0
664 1 1 0 -18.44109838822768 67.8384201282445 -32.31518109476473 0 0 0
627 1 1 0 -17.314327060442974 67.85491371179863 -32.22053914850181 0 0 0
617 1 1 0 -10.719333293457412 67.347948815498 -33.02490511884104 0 0 0
663 1 1 0 -18.596043509267986 68.84066679910619 -32.165090545219385 0 0 0
626 1 1 0 -17.550516355497134 68.29736412015437 -33.003961051795535 0 0 0
549 1 1 0 -7.228558433007505 70.6784973439752 -32.58029876811666 0 0 0
494 1 1 0 -5.144230868906863 70.6359317365358 -32.08058189258317 0 0 0
495 1 1 0 -4.628036003795966 71.42327089240806 -32.424493660893205 0 0 0
496 1 1 0 -4.013399365114414 72.27118999532443 -32.633622852818675 0 0 0
497 1 1 0 -3.117282867239498 71.96365305191165 -32.91685099856552 0 0 0
542 1 1 0 -6.691549397095946 73.36274134328764 -32.81245854235599 0 0 0
540 1 2 0 -4.769024920127998 73.33923575605293 -32.58352044042404 0 0 0
541 1 1 0 -5.769554642656805 73.18707198948236 -32.752177214098324 0 0 0
498 1 1 0 -2.453947935838214 72.739485234305 -32.89996290160529 0 0 0
483 1 1 0 -5.642039020952328 74.05331099239554 -32.37870788736362 0 0 0
499 1 1 0 -2.9045773134237862 73.54607949989835 -32.83468406210427 0 0 0
502 1 1 0 -3.604137673998593 74.44908810867359 -32.728040742107005 0 0 0
500 1 1 0 -2.313047804114806 73.99167493014039 -32.12322383102367 0 0 0
532 1 1 0 -7.313293467820144 75.0360782707948 -32.14439152996847 0 0 0
531 1 1 0 -6.988118085794484 75.45266468203273 -32.985512314328446 0 0 0
501 1 1 0 -2.6265866534058984 74.67843753798647 -32.84534933117974 0 0 0
533 1 1 0 -7.215498725965009 76.09149677404056 -32.109065238401556 0 0 0
534 1 1 0 -6.508037284863932 76.6563910566493 -32.530347728215844 0 0 0
3924 1 1 0 -2.6409541998184314 44.64596793971121 -31.492920433587667 0 0 0
3921 1 1 0 -1.3706067188210618 44.694108218889866 -31.292994533989717 0 0 0
3910 1 1 0 2.830370693491157 44.19584877839748 -31.44768104312096 0 0 0
3917 1 1 0 1.1425173209344055 45.08226264842575 -31.508912060080053 0 0 0
3937 1 1 0 -2.743319227762616 46.71393321619073 -31.839356401485112 0 0 0
3938 1 1 0 -2.059413851619894 46.03611363086103 -31.8286123433352 0 0 0
3939 1 1 0 -1.2723223690993692 46.66176937421679 -31.90293095789795 0 0 0
3934 1 1 0 -3.2619549254404108 47.3509786538201 -31.510482702406748 0 0 0
3936 1 1 0 -2.0008051769365545 47.317213390475956 -31.555164065598486 0 0 0
3943 1 1 0 -1.550352336852546 48.865185677886046 -31.278204773149014 0 0 0
3985 1 1 0 -18.54330767680299 49.835531744857796 -31.526229016881587 0 0 0
3945 1 1 0 -3.164146661083965 49.82453143014421 -31.554457748008915 0 0 0
3944 1 1 0 -2.400409384269312 49.245706906882454 -31.2564251275009 0 0 0
3984 1 1 0 -17.75044771984124 50.26496675477247 -31.274740808764623 0 0 0
3983 1 1 0 -17.949808390874068 51.265322010636375 -31.229286344654575 0 0 0
3950 1 1 0 -5.458116900543289 50.72524956513351 -31.769612475403264 0 0 0
3982 1 1 0 -17.33910813543201 52.05565782701431 -31.108170870154737 0 0 0
3980 1 1 0 -16.046735068387267 52.32627474432816 -31.724001025867192 0 0 0
3979 1 1 0 -15.724716164454588 51.378591142224565 -31.760003140901066 0 0 0
3951 1 1 0 -5.005283746518405 51.56895155989656 -31.563504817593497 0 0 0
3975 1 1 0 -14.229008931222134 52.50120020844118 -31.896719992331526 0 0 0
3961 1 1 0 -8.48113609748935 52.80767689830582 -31.985785043896268 0 0 0
3959 1 1 0 -7.507260532685037 53.22135240954186 -31.603248686446083 0 0 0
3581 1 1 0 -6.400450698005114 57.37672774804397 -31.426387839022475 0 0 0
3579 1 1 0 -7.254775578476307 58.61508140574247 -31.16031741086986 0 0 0
3580 1 1 0 -6.388472111737055 58.332063503768836 -31.462024562415085 0 0 0
3574 1 1 0 -5.427477974480886 57.86980169758884 -31.07798045121709 0 0 0
808 1 1 0 -33.34742532873121 59.23261951541577 -31.325719505239682 0 0 0
3575 1 1 0 -5.599229573876595 58.90946565331709 -31.175058100768247 0 0 0
645 1 1 0 -19.910057024641688 62.15636764836971 -31.429761897639022 0 0 0
644 1 1 0 -18.96542404958811 62.216745022934894 -31.22112525166189 0 0 0
642 1 1 0 -18.770963658538633 62.91248127594476 -31.88077311273878 0 0 0
643 1 1 0 -18.04999249208796 62.49102982793927 -31.40358790739758 0 0 0
3595 1 2 0 -10.182637794915465 62.165227260577026 -31.372743683120582 0 0 0
780 1 1 0 -27.867403590703248 63.868417855730875 -31.21521947815819 0 0 0
781 1 1 0 -27.50639167160393 63.31444911010421 -31.87554157427082 0 0 0
646 1 1 0 -20.108170315941955 63.04818266058642 -31.075775961424487 0 0 0
3599 1 1 0 -12.175443144229744 63.15825522424757 -31.697403942733644 0 0 0
3597 1 1 0 -11.058085033290846 63.035929599766945 -31.251369379092868 0 0 0
778 1 1 0 -27.664023941463608 64.8347710268164 -31.897853321621547 0 0 0
779 1 1 0 -27.00264332077371 64.35975584946017 -31.39488465826614 0 0 0
640 1 1 0 -19.010761846750015 64.26959186974345 -31.665303666283123 0 0 0
636 1 1 0 -17.37566800228744 64.20805408571911 -31.533412291224355 0 0 0
3603 1 1 0 -11.998656906832617 64.15169815514764 -31.706456076270495 0 0 0
3623 1 1 0 -2.499204222773525 64.52456149528302 -31.614411712598027 0 0 0
630 1 1 0 -15.810128037207484 66.01429693982845 -31.399276918432818 0 0 0
711 1 1 0 -22.16085279818889 66.73062277209412 -31.33506421389816 0 0 0
712 1 1 0 -21.44407010914104 66.80819879104781 -31.94936382651302 0 0 0
629 1 1 0 -16.58617275320738 66.64542435822337 -31.66859986512911 0 0 0
715 1 2 0 -20.135216971018682 67.659951798695 -32.034102537335656 0 0 0
665 1 1 0 -17.972745033143134 68.23399707194358 -31.554852388872284 0 0 0
662 1 1 0 -19.080529532523276 69.09542874824106 -31.314813342893512 0 0 0
548 1 1 0 -7.896486203606033 70.26395675595047 -31.974229664739546 0 0 0
547 1 1 0 -7.899667104321951 70.73878968973516 -31.123183331932676 0 0 0
493 1 1 0 -4.251869671852786 70.38893204313399 -31.889952710066716 0 0 0
492 1 1 0 -4.049367104600332 71.17269386139353 -31.383924976520056 0 0 0
546 1 1 0 -8.215469744419195 71.58095222202085 -31.60634838010471 0 0 0
488 1 1 0 -5.433682861301152 72.12482903434052 -31.25748543773763 0 0 0
489 1 1 0 -4.533332139345529 72.04788601744099 -31.700017570616133 0 0 0
491 1 1 0 -3.2490364987453817 71.70890503047843 -31.015493768589053 0 0 0
490 1 1 0 -3.5764212168862293 72.4094261528113 -31.754212273999197 0 0 0
545 1 1 0 -7.947673582979649 72.49442031546978 -31.3460066170268 0 0 0
544 1 1 0 -7.396167691079885 73.30239664841484 -31.127557226992465 0 0 0
485 1 1 0 -4.843474021211565 73.03562178758898 -31.17251441408213 0 0 0
543 1 1 0 -6.993149144728195 73.62280877896434 -31.942242078871786 0 0 0
482 1 1 0 -4.786841697039905 74.37174333279609 -31.96482963600988 0 0 0
484 1 1 0 -5.540401616447283 73.58979037435569 -31.533766602077872 0 0 0
481 1 1 0 -4.132699967195709 74.06031758133761 -31.321234936609983 0 0 0
480 1 1 0 -3.2218964077810135 74.39251032628306 -31.48393205241434 0 0 0
475 1 1 0 -1.5465686771792642 75.91296187519971 -31.107582769518874 0 0 0
474 1 1 0 -1.7629238371010143 76.92468206246467 -31.176541236245303 0 0 0
472 1 1 0 -2.224550425063889 78.25818819540974 -31.313419683014708 0 0 0
3926 1 1 0 -2.433550796890671 44.51416058765292 -30.0751765606637 0 0 0
3908 1 1 0 1.598870745552093 44.86461310573364 -30.294668912327907 0 0 0
3909 1 1 0 2.4128805713891985 44.68746042212828 -30.74888075087979 0 0 0
3929 1 1 0 -3.795904562039724 45.752339516401584 -30.035336554791353 0 0 0
3925 1 1 0 -2.362255815049365 45.177954330640254 -30.74645997188891 0 0 0
3920 1 1 0 -1.1211301318487068 45.552916356578336 -30.930897924541245 0 0 0
3919 1 1 0 -0.11108142914398765 45.8663493080164 -30.83326734210325 0 0 0
3907 1 1 0 0.818484710013708 45.42658371025539 -30.02143090993685 0 0 0
3918 1 1 0 0.8149515243113331 45.79438752326323 -30.947282809220344 0 0 0
3993 1 1 0 -19.66816587521197 46.632339390680166 -30.680718926470146 0 0 0
3994 1 1 0 -18.804850197672856 46.28350260739189 -30.381858466900592 0 0 0
3940 1 1 0 -1.4778967654407305 46.52699501466177 -30.94634939522775 0 0 0
3992 1 1 0 -19.36710364689995 47.559519454531184 -30.642089451785978 0 0 0
3990 1 1 0 -18.415986402834335 48.11326750905521 -30.24969829451782 0 0 0
3932 1 1 0 -2.916580503733293 47.47469051614965 -30.07159167988056 0 0 0
3933 1 1 0 -3.422427335197198 47.96791754141657 -30.763003662333272 0 0 0
3941 1 1 0 -1.5797372650104111 47.365319811979795 -30.471841682684232 0 0 0
3987 1 1 0 -19.61460046831152 48.93869935259932 -30.451289317050886 0 0 0
3986 1 1 0 -18.747071857378234 49.04676418239694 -30.984877228189248 0 0 0
3942 1 1 0 -1.2909320401279707 48.399059271082784 -30.402325319809123 0 0 0
846 1 1 0 -28.991963490553506 51.0336644977318 -30.05980878592948 0 0 0
847 1 1 0 -29.00073179386754 51.972042858717636 -30.276691492009196 0 0 0
848 1 1 0 -28.07492923118213 52.29115521555099 -30.131421798362695 0 0 0
3981 1 1 0 -16.408118146868922 52.16206263510564 -30.780743577917015 0 0 0
839 1 1 0 -32.63564949510862 53.27295431896697 -30.11103281942329 0 0 0
841 1 1 0 -31.691951756894518 52.4783761340868 -30.781113303718772 0 0 0
842 1 1 0 -30.935426524599297 52.5719846474313 -30.19008885095935 0 0 0
820 1 1 0 -29.103795022073033 55.21350030292155 -30.306517027349564 0 0 0
816 1 2 0 -30.317174631633648 57.57733133555479 -30.030224984826674 0 0 0
818 1 2 0 -29.677588872521458 56.88644073895778 -30.323749427948016 0 0 0
3573 1 1 0 -5.688254694437881 57.36188269220934 -30.269233655428206 0 0 0
809 1 1 0 -33.816589931272844 58.580817167873214 -30.75778140954277 0 0 0
3572 1 1 0 -6.460975204424943 57.8640419644585 -29.981746168877887 0 0 0
812 1 1 0 -32.337101284734096 59.283904785029904 -30.32444110654173 0 0 0